# vtk DataFile Version 4.2
vtk output
ASCII
DATASET UNSTRUCTURED_GRID
POINTS 8 float
0 0 0 1 0 0 0 1 0 
1 1 0 0 0 1 1 0 1 
0 1 1 1 1 1 
METADATA
INFORMATION 2
NAME L2_NORM_RANGE LOCATION vtkDataArray
DATA 2 0 1.73205 
NAME L2_NORM_FINITE_RANGE LOCATION vtkDataArray
DATA 2 0 1.73205 

CELLS 1 9
8 0 1 3 2 4 5 7 6 

CELL_TYPES 1
72

POINT_DATA 8
FIELD FieldData 2
DistanceToCenter 1 8 float
0.866025 0.866025 0.866025 0.866025 0.866025 0.866025 0.866025 0.866025 
METADATA
INFORMATION 0

Polynomial 1 8 float
1 2 2 3 2 3 3 4 
METADATA
INFORMATION 0

