# vtk DataFile Version 4.2
vtk output
ASCII
DATASET UNSTRUCTURED_GRID
POINTS 343 double
0 0 0 1 0 0 2 0 0 
3 0 0 0 1 0 1 1 0 
2 1 0 3 1 0 0 2 0 
1 2 0 2 2 0 3 2 0 
0 3 0 1 3 0 2 3 0 
3 3 0 0 0 1 1 0 1 
2 0 1 3 0 1 0 1 1 
1 1 1 2 1 1 3 1 1 
0 2 1 1 2 1 2 2 1 
3 2 1 0 3 1 1 3 1 
2 3 1 3 3 1 0 0 2 
1 0 2 2 0 2 3 0 2 
0 1 2 1 1 2 2 1 2 
3 1 2 0 2 2 1 2 2 
2 2 2 3 2 2 0 3 2 
1 3 2 2 3 2 3 3 2 
0 0 3 1 0 3 2 0 3 
3 0 3 0 1 3 1 1 3 
2 1 3 3 1 3 0 2 3 
1 2 3 2 2 3 3 2 3 
0 3 3 1 3 3 2 3 3 
3 3 3 0.5 0 0 0 0.5 0 
0.5 0.5 0 1 0.5 0 0.5 1 0 
0 0 0.5 0.5 0 0.5 1 0 0.5 
0 0.5 0.5 0.5 0.5 0.5 1 0.5 0.5 
0 1 0.5 0.5 1 0.5 1 1 0.5 
0.5 0 1 0 0.5 1 0.5 0.5 1 
1 0.5 1 0.5 1 1 1.5 0 0 
1.5 0.5 0 2 0.5 0 1.5 1 0 
1.5 0 0.5 2 0 0.5 1.5 0.5 0.5 
2 0.5 0.5 1.5 1 0.5 2 1 0.5 
1.5 0 1 1.5 0.5 1 2 0.5 1 
1.5 1 1 2.5 0 0 2.5 0.5 0 
3 0.5 0 2.5 1 0 2.5 0 0.5 
3 0 0.5 2.5 0.5 0.5 3 0.5 0.5 
2.5 1 0.5 3 1 0.5 2.5 0 1 
2.5 0.5 1 3 0.5 1 2.5 1 1 
0 1.5 0 0.5 1.5 0 1 1.5 0 
0.5 2 0 0 1.5 0.5 0.5 1.5 0.5 
1 1.5 0.5 0 2 0.5 0.5 2 0.5 
1 2 0.5 0 1.5 1 0.5 1.5 1 
1 1.5 1 0.5 2 1 1.5 1.5 0 
2 1.5 0 1.5 2 0 1.5 1.5 0.5 
2 1.5 0.5 1.5 2 0.5 2 2 0.5 
1.5 1.5 1 2 1.5 1 1.5 2 1 
2.5 1.5 0 3 1.5 0 2.5 2 0 
2.5 1.5 0.5 3 1.5 0.5 2.5 2 0.5 
3 2 0.5 2.5 1.5 1 3 1.5 1 
2.5 2 1 0 2.5 0 0.5 2.5 0 
1 2.5 0 0.5 3 0 0 2.5 0.5 
0.5 2.5 0.5 1 2.5 0.5 0 3 0.5 
0.5 3 0.5 1 3 0.5 0 2.5 1 
0.5 2.5 1 1 2.5 1 0.5 3 1 
1.5 2.5 0 2 2.5 0 1.5 3 0 
1.5 2.5 0.5 2 2.5 0.5 1.5 3 0.5 
2 3 0.5 1.5 2.5 1 2 2.5 1 
1.5 3 1 2.5 2.5 0 3 2.5 0 
2.5 3 0 2.5 2.5 0.5 3 2.5 0.5 
2.5 3 0.5 3 3 0.5 2.5 2.5 1 
3 2.5 1 2.5 3 1 0 0 1.5 
0.5 0 1.5 1 0 1.5 0 0.5 1.5 
0.5 0.5 1.5 1 0.5 1.5 0 1 1.5 
0.5 1 1.5 1 1 1.5 0.5 0 2 
0 0.5 2 0.5 0.5 2 1 0.5 2 
0.5 1 2 1.5 0 1.5 2 0 1.5 
1.5 0.5 1.5 2 0.5 1.5 1.5 1 1.5 
2 1 1.5 1.5 0 2 1.5 0.5 2 
2 0.5 2 1.5 1 2 2.5 0 1.5 
3 0 1.5 2.5 0.5 1.5 3 0.5 1.5 
2.5 1 1.5 3 1 1.5 2.5 0 2 
2.5 0.5 2 3 0.5 2 2.5 1 2 
0 1.5 1.5 0.5 1.5 1.5 1 1.5 1.5 
0 2 1.5 0.5 2 1.5 1 2 1.5 
0 1.5 2 0.5 1.5 2 1 1.5 2 
0.5 2 2 1.5 1.5 1.5 2 1.5 1.5 
1.5 2 1.5 2 2 1.5 1.5 1.5 2 
2 1.5 2 1.5 2 2 2.5 1.5 1.5 
3 1.5 1.5 2.5 2 1.5 3 2 1.5 
2.5 1.5 2 3 1.5 2 2.5 2 2 
0 2.5 1.5 0.5 2.5 1.5 1 2.5 1.5 
0 3 1.5 0.5 3 1.5 1 3 1.5 
0 2.5 2 0.5 2.5 2 1 2.5 2 
0.5 3 2 1.5 2.5 1.5 2 2.5 1.5 
1.5 3 1.5 2 3 1.5 1.5 2.5 2 
2 2.5 2 1.5 3 2 2.5 2.5 1.5 
3 2.5 1.5 2.5 3 1.5 3 3 1.5 
2.5 2.5 2 3 2.5 2 2.5 3 2 
0 0 2.5 0.5 0 2.5 1 0 2.5 
0 0.5 2.5 0.5 0.5 2.5 1 0.5 2.5 
0 1 2.5 0.5 1 2.5 1 1 2.5 
0.5 0 3 0 0.5 3 0.5 0.5 3 
1 0.5 3 0.5 1 3 1.5 0 2.5 
2 0 2.5 1.5 0.5 2.5 2 0.5 2.5 
1.5 1 2.5 2 1 2.5 1.5 0 3 
1.5 0.5 3 2 0.5 3 1.5 1 3 
2.5 0 2.5 3 0 2.5 2.5 0.5 2.5 
3 0.5 2.5 2.5 1 2.5 3 1 2.5 
2.5 0 3 2.5 0.5 3 3 0.5 3 
2.5 1 3 0 1.5 2.5 0.5 1.5 2.5 
1 1.5 2.5 0 2 2.5 0.5 2 2.5 
1 2 2.5 0 1.5 3 0.5 1.5 3 
1 1.5 3 0.5 2 3 1.5 1.5 2.5 
2 1.5 2.5 1.5 2 2.5 2 2 2.5 
1.5 1.5 3 2 1.5 3 1.5 2 3 
2.5 1.5 2.5 3 1.5 2.5 2.5 2 2.5 
3 2 2.5 2.5 1.5 3 3 1.5 3 
2.5 2 3 0 2.5 2.5 0.5 2.5 2.5 
1 2.5 2.5 0 3 2.5 0.5 3 2.5 
1 3 2.5 0 2.5 3 0.5 2.5 3 
1 2.5 3 0.5 3 3 1.5 2.5 2.5 
2 2.5 2.5 1.5 3 2.5 2 3 2.5 
1.5 2.5 3 2 2.5 3 1.5 3 3 
2.5 2.5 2.5 3 2.5 2.5 2.5 3 2.5 
3 3 2.5 2.5 2.5 3 3 2.5 3 
2.5 3 3 
METADATA
INFORMATION 2
NAME L2_NORM_RANGE LOCATION vtkDataArray
DATA 2 0 5.19615 
NAME L2_NORM_FINITE_RANGE LOCATION vtkDataArray
DATA 2 0 5.19615 

CELLS 27 756
27 0 1 5 4 16 17 21 20 64 67 68 65 78 81 82 79 69 71 75 77 72 74 70 76 66 80 73 
27 1 2 6 5 17 18 22 21 83 85 86 67 93 95 96 81 71 88 77 92 74 90 87 91 84 94 89 
27 2 3 7 6 18 19 23 22 97 99 100 85 107 109 110 95 88 102 92 106 90 104 101 105 98 108 103 
27 4 5 9 8 20 21 25 24 68 113 114 111 82 123 124 121 75 77 118 120 115 117 76 119 112 122 116 
27 5 6 10 9 21 22 26 25 86 126 127 113 96 133 134 123 77 92 120 131 117 129 91 130 125 132 128 
27 6 7 11 10 22 23 27 26 100 136 137 126 110 143 144 133 92 106 131 141 129 139 105 140 135 142 138 
27 8 9 13 12 24 25 29 28 114 147 148 145 124 157 158 155 118 120 152 154 149 151 119 153 146 156 150 
27 9 10 14 13 25 26 30 29 127 160 161 147 134 167 168 157 120 131 154 165 151 163 130 164 159 166 162 
27 10 11 15 14 26 27 31 30 137 170 171 160 144 177 178 167 131 141 165 175 163 173 140 174 169 176 172 
27 16 17 21 20 32 33 37 36 78 81 82 79 188 191 192 189 179 181 185 187 182 184 180 186 80 190 183 
27 17 18 22 21 33 34 38 37 93 95 96 81 199 201 202 191 181 194 187 198 184 196 193 197 94 200 195 
27 18 19 23 22 34 35 39 38 107 109 110 95 209 211 212 201 194 204 198 208 196 206 203 207 108 210 205 
27 20 21 25 24 36 37 41 40 82 123 124 121 192 221 222 219 185 187 216 218 213 215 186 217 122 220 214 
27 21 22 26 25 37 38 42 41 96 133 134 123 202 228 229 221 187 198 218 226 215 224 197 225 132 227 223 
27 22 23 27 26 38 39 43 42 110 143 144 133 212 235 236 228 198 208 226 233 224 231 207 232 142 234 230 
27 24 25 29 28 40 41 45 44 124 157 158 155 222 245 246 243 216 218 240 242 237 239 217 241 156 244 238 
27 25 26 30 29 41 42 46 45 134 167 168 157 229 252 253 245 218 226 242 250 239 248 225 249 166 251 247 
27 26 27 31 30 42 43 47 46 144 177 178 167 236 259 260 252 226 233 250 257 248 255 232 256 176 258 254 
27 32 33 37 36 48 49 53 52 188 191 192 189 270 273 274 271 261 263 267 269 264 266 262 268 190 272 265 
27 33 34 38 37 49 50 54 53 199 201 202 191 281 283 284 273 263 276 269 280 266 278 275 279 200 282 277 
27 34 35 39 38 50 51 55 54 209 211 212 201 291 293 294 283 276 286 280 290 278 288 285 289 210 292 287 
27 36 37 41 40 52 53 57 56 192 221 222 219 274 303 304 301 267 269 298 300 295 297 268 299 220 302 296 
27 37 38 42 41 53 54 58 57 202 228 229 221 284 310 311 303 269 280 300 308 297 306 279 307 227 309 305 
27 38 39 43 42 54 55 59 58 212 235 236 228 294 317 318 310 280 290 308 315 306 313 289 314 234 316 312 
27 40 41 45 44 56 57 61 60 222 245 246 243 304 327 328 325 298 300 322 324 319 321 299 323 244 326 320 
27 41 42 46 45 57 58 62 61 229 252 253 245 311 334 335 327 300 308 324 332 321 330 307 331 251 333 329 
27 42 43 47 46 58 59 63 62 236 259 260 252 318 341 342 334 308 315 332 339 330 337 314 338 258 340 336 

CELL_TYPES 27
72
72
72
72
72
72
72
72
72
72
72
72
72
72
72
72
72
72
72
72
72
72
72
72
72
72
72

POINT_DATA 343
FIELD FieldData 2
DistanceToCenter 1 343 double
2.5980762114 2.1794494718 2.1794494718 2.5980762114 2.1794494718 1.6583123952 1.6583123952 2.1794494718 2.1794494718 
1.6583123952 1.6583123952 2.1794494718 2.5980762114 2.1794494718 2.1794494718 2.5980762114 2.1794494718 1.6583123952 
1.6583123952 2.1794494718 1.6583123952 0.86602540378 0.86602540378 1.6583123952 1.6583123952 0.86602540378 0.86602540378 
1.6583123952 2.1794494718 1.6583123952 1.6583123952 2.1794494718 2.1794494718 1.6583123952 1.6583123952 2.1794494718 
1.6583123952 0.86602540378 0.86602540378 1.6583123952 1.6583123952 0.86602540378 0.86602540378 1.6583123952 2.1794494718 
1.6583123952 1.6583123952 2.1794494718 2.5980762114 2.1794494718 2.1794494718 2.5980762114 2.1794494718 1.6583123952 
1.6583123952 2.1794494718 2.1794494718 1.6583123952 1.6583123952 2.1794494718 2.5980762114 2.1794494718 2.1794494718 
2.5980762114 2.3452078799 2.3452078799 2.0615528128 1.8708286934 1.8708286934 2.3452078799 2.0615528128 1.8708286934 
2.0615528128 1.7320508076 1.5 1.8708286934 1.5 1.2247448714 1.8708286934 1.8708286934 1.5 
1.2247448714 1.2247448714 2.1213203436 1.8027756377 1.8708286934 1.5811388301 1.8027756377 1.8708286934 1.4142135624 
1.5 1.1180339887 1.2247448714 1.5811388301 1.1180339887 1.2247448714 0.70710678119 2.3452078799 2.0615528128 
2.3452078799 1.8708286934 2.0615528128 2.3452078799 1.7320508076 2.0615528128 1.5 1.8708286934 1.8708286934 
1.5 1.8708286934 1.2247448714 2.1213203436 1.8027756377 1.5811388301 1.8708286934 1.8027756377 1.4142135624 
1.1180339887 1.8708286934 1.5 1.2247448714 1.5811388301 1.1180339887 0.70710678119 1.2247448714 1.5 
1.5811388301 1.5811388301 1 1.1180339887 1.1180339887 1.2247448714 0.5 0.70710678119 0.70710678119 
1.8027756377 2.1213203436 1.8708286934 1.4142135624 1.8027756377 1.5 1.8708286934 1.1180339887 1.5811388301 
1.2247448714 2.3452078799 2.0615528128 1.8708286934 2.3452078799 2.0615528128 1.7320508076 1.5 2.3452078799 
2.0615528128 1.8708286934 1.8708286934 1.5 1.2247448714 1.8708286934 1.8027756377 1.8708286934 2.1213203436 
1.4142135624 1.5 1.8027756377 1.8708286934 1.1180339887 1.2247448714 1.5811388301 2.0615528128 2.3452078799 
2.3452078799 1.7320508076 2.0615528128 2.0615528128 2.3452078799 1.5 1.8708286934 1.8708286934 2.1213203436 
1.8027756377 1.5811388301 1.8027756377 1.4142135624 1.1180339887 1.5811388301 1.1180339887 0.70710678119 1.8708286934 
1.8708286934 1.5 1.2247448714 1.2247448714 1.5 1.5811388301 1 1.1180339887 0.5 
0.70710678119 1.5811388301 1.1180339887 1.2247448714 0.70710678119 1.8027756377 2.1213203436 1.4142135624 1.8027756377 
1.1180339887 1.5811388301 1.8708286934 1.5 1.8708286934 1.2247448714 1.5 1 0.5 
1.5811388301 1.1180339887 0.70710678119 1.5811388301 1.1180339887 0.70710678119 1.2247448714 0 0.5 
0.5 0.70710678119 0.5 0.70710678119 0.70710678119 1 1.5 1.1180339887 1.5811388301 
1.1180339887 1.5811388301 1.2247448714 1.8027756377 1.4142135624 1.1180339887 2.1213203436 1.8027756377 1.5811388301 
1.8708286934 1.5 1.2247448714 1.8708286934 1 1.1180339887 1.5 1.5811388301 1.1180339887 
1.2247448714 1.5811388301 1.4142135624 1.8027756377 1.8027756377 2.1213203436 1.5 1.8708286934 1.8708286934 
2.3452078799 2.0615528128 1.8708286934 2.0615528128 1.7320508076 1.5 1.8708286934 1.5 1.2247448714 
2.3452078799 2.3452078799 2.0615528128 1.8708286934 1.8708286934 1.8027756377 1.8708286934 1.4142135624 1.5 
1.1180339887 1.2247448714 2.1213203436 1.8027756377 1.8708286934 1.5811388301 2.0615528128 2.3452078799 1.7320508076 
2.0615528128 1.5 1.8708286934 2.3452078799 2.0615528128 2.3452078799 1.8708286934 1.8027756377 1.4142135624 
1.1180339887 1.8708286934 1.5 1.2247448714 2.1213203436 1.8027756377 1.5811388301 1.8708286934 1 
1.1180339887 1.1180339887 1.2247448714 1.5 1.5811388301 1.5811388301 1.4142135624 1.8027756377 1.5 
1.8708286934 1.8027756377 2.1213203436 1.8708286934 2.0615528128 1.7320508076 1.5 2.3452078799 2.0615528128 
1.8708286934 2.3452078799 2.0615528128 1.8708286934 2.3452078799 1.4142135624 1.5 1.8027756377 1.8708286934 
1.8027756377 1.8708286934 2.1213203436 1.7320508076 2.0615528128 2.0615528128 2.3452078799 2.0615528128 2.3452078799 
2.3452078799 
METADATA
INFORMATION 0

Polynomial 1 343 double
1 1 1 1 1 1 1 1 1 
1 1 1 1 1 1 1 1 1 
1 1 1 1 1 1 1 1 1 
1 1 1 1 1 1 1 1 1 
1 1 1 1 1 1 1 1 1 
1 1 1 1 1 1 1 1 1 
1 1 1 1 1 1 1 1 1 
1 1 1 1 1 1 1 1 1 
1 1 1 1 1 1 1 1 1 
1 1 1 1 1 1 1 1 1 
1 1 1 1 1 1 1 1 1 
1 1 1 1 1 1 1 1 1 
1 1 1 1 1 1 1 1 1 
1 1 1 1 1 1 1 1 1 
1 1 1 1 1 1 1 1 1 
1 1 1 1 1 1 1 1 1 
1 1 1 1 1 1 1 1 1 
1 1 1 1 1 1 1 1 1 
1 1 1 1 1 1 1 1 1 
1 1 1 1 1 1 1 1 1 
1 1 1 1 1 1 1 1 1 
1 1 1 1 1 1 1 1 1 
1 1 1 1 1 1 1 1 1 
1 1 1 1 1 1 1 1 1 
1 1 1 1 1 1 1 1 1 
1 1 1 1 1 1 1 1 1 
1 1 1 1 1 1 1 1 1 
1 1 1 1 1 1 1 1 1 
1 1 1 1 1 1 1 1 1 
1 1 1 1 1 1 1 1 1 
1 1 1 1 1 1 1 1 1 
1 1 1 1 1 1 1 1 1 
1 1 1 1 1 1 1 1 1 
1 1 1 1 1 1 1 1 1 
1 1 1 1 1 1 1 1 1 
1 1 1 1 1 1 1 1 1 
1 1 1 1 1 1 1 1 1 
1 1 1 1 1 1 1 1 1 
1 
METADATA
INFORMATION 0

