# vtk DataFile Version 4.2
vtk output
ASCII
DATASET UNSTRUCTURED_GRID
POINTS 27 float
0 0 0 1 0 0 0 1 0 
1 1 0 0 0 1 1 0 1 
0 1 1 1 1 1 0.5 0 0 
0 0.5 0 0.5 0.5 0 1 0.5 0 
0.5 1 0 0 0 0.5 0.5 0 0.5 
1 0 0.5 0 0.5 0.5 0.5 0.5 0.5 
1 0.5 0.5 0 1 0.5 0.5 1 0.5 
1 1 0.5 0.5 0 1 0 0.5 1 
0.5 0.5 1 1 0.5 1 0.5 1 1 

METADATA
INFORMATION 2
NAME L2_NORM_RANGE LOCATION vtkDataArray
DATA 2 0 1.73205 
NAME L2_NORM_FINITE_RANGE LOCATION vtkDataArray
DATA 2 0 1.73205 

CELLS 1 28
27 0 1 3 2 4 5 7 6 8 11 12 9 22 25 26 23 13 15 19 21 16 18 14 20 10 24 17 

CELL_TYPES 1
72

POINT_DATA 27
FIELD FieldData 2
DistanceToCenter 1 27 float
0.866025 0.866025 0.866025 0.866025 0.866025 0.866025 0.866025 0.866025 0.707107 
0.707107 0.5 0.707107 0.707107 0.707107 0.5 0.707107 0.5 0 
0.5 0.707107 0.5 0.707107 0.707107 0.707107 0.5 0.707107 0.707107 

METADATA
INFORMATION 0

Polynomial 1 27 float
1 2 2 3 2 3 3 4 1 
1 1 2 2 1 1 2 1 1 
2 2 2 3 2 2 2 3 3 

METADATA
INFORMATION 0

