# vtk DataFile Version 4.2
vtk output
ASCII
DATASET UNSTRUCTURED_GRID
POINTS 125 float
0 0 0 1 0 0 0 1 0 
1 1 0 0 0 1 1 0 1 
0 1 1 1 1 1 0.25 0 0 
0.5 0 0 0.75 0 0 0 0.25 0 
0.25 0.25 0 0.5 0.25 0 0.75 0.25 0 
1 0.25 0 0 0.5 0 0.25 0.5 0 
0.5 0.5 0 0.75 0.5 0 1 0.5 0 
0 0.75 0 0.25 0.75 0 0.5 0.75 0 
0.75 0.75 0 1 0.75 0 0.25 1 0 
0.5 1 0 0.75 1 0 0 0 0.25 
0.25 0 0.25 0.5 0 0.25 0.75 0 0.25 
1 0 0.25 0 0.25 0.25 0.25 0.25 0.25 
0.5 0.25 0.25 0.75 0.25 0.25 1 0.25 0.25 
0 0.5 0.25 0.25 0.5 0.25 0.5 0.5 0.25 
0.75 0.5 0.25 1 0.5 0.25 0 0.75 0.25 
0.25 0.75 0.25 0.5 0.75 0.25 0.75 0.75 0.25 
1 0.75 0.25 0 1 0.25 0.25 1 0.25 
0.5 1 0.25 0.75 1 0.25 1 1 0.25 
0 0 0.5 0.25 0 0.5 0.5 0 0.5 
0.75 0 0.5 1 0 0.5 0 0.25 0.5 
0.25 0.25 0.5 0.5 0.25 0.5 0.75 0.25 0.5 
1 0.25 0.5 0 0.5 0.5 0.25 0.5 0.5 
0.5 0.5 0.5 0.75 0.5 0.5 1 0.5 0.5 
0 0.75 0.5 0.25 0.75 0.5 0.5 0.75 0.5 
0.75 0.75 0.5 1 0.75 0.5 0 1 0.5 
0.25 1 0.5 0.5 1 0.5 0.75 1 0.5 
1 1 0.5 0 0 0.75 0.25 0 0.75 
0.5 0 0.75 0.75 0 0.75 1 0 0.75 
0 0.25 0.75 0.25 0.25 0.75 0.5 0.25 0.75 
0.75 0.25 0.75 1 0.25 0.75 0 0.5 0.75 
0.25 0.5 0.75 0.5 0.5 0.75 0.75 0.5 0.75 
1 0.5 0.75 0 0.75 0.75 0.25 0.75 0.75 
0.5 0.75 0.75 0.75 0.75 0.75 1 0.75 0.75 
0 1 0.75 0.25 1 0.75 0.5 1 0.75 
0.75 1 0.75 1 1 0.75 0.25 0 1 
0.5 0 1 0.75 0 1 0 0.25 1 
0.25 0.25 1 0.5 0.25 1 0.75 0.25 1 
1 0.25 1 0 0.5 1 0.25 0.5 1 
0.5 0.5 1 0.75 0.5 1 1 0.5 1 
0 0.75 1 0.25 0.75 1 0.5 0.75 1 
0.75 0.75 1 1 0.75 1 0.25 1 1 
0.5 1 1 0.75 1 1 
METADATA
INFORMATION 2
NAME L2_NORM_RANGE LOCATION vtkDataArray
DATA 2 0 1.73205 
NAME L2_NORM_FINITE_RANGE LOCATION vtkDataArray
DATA 2 0 1.73205 

CELLS 1 126
125 0 1 3 2 4 5 7 6 8 9 10 15 20 25 26 27 28 11 16 21 104 105 106 111 116 121 122 123 124 107 112 117 29 54 79 33 58 83 49 74 99 53 78 103 34 39 44 59 64 69 84 89 94 38 43 48 63 68 73 88 93 98 30 31 32 55 56 57 80 81 82 50 51 52 75 76 77 100 101 102 12 13 14 17 18 19 22 23 24 108 109 110 113 114 115 118 119 120 35 36 37 40 41 42 45 46 47 60 61 62 65 66 67 70 71 72 85 86 87 90 91 92 95 96 97 

CELL_TYPES 1
72

POINT_DATA 125
FIELD FieldData 2
DistanceToCenter 1 125 float
0.866025 0.866025 0.866025 0.866025 0.866025 0.866025 0.866025 0.866025 0.75 
0.707107 0.75 0.75 0.612372 0.559017 0.612372 0.75 0.707107 0.559017 
0.5 0.559017 0.707107 0.75 0.612372 0.559017 0.612372 0.75 0.75 
0.707107 0.75 0.75 0.612372 0.559017 0.612372 0.75 0.612372 0.433013 
0.353553 0.433013 0.612372 0.559017 0.353553 0.25 0.353553 0.559017 0.612372 
0.433013 0.353553 0.433013 0.612372 0.75 0.612372 0.559017 0.612372 0.75 
0.707107 0.559017 0.5 0.559017 0.707107 0.559017 0.353553 0.25 0.353553 
0.559017 0.5 0.25 0 0.25 0.5 0.559017 0.353553 0.25 
0.353553 0.559017 0.707107 0.559017 0.5 0.559017 0.707107 0.75 0.612372 
0.559017 0.612372 0.75 0.612372 0.433013 0.353553 0.433013 0.612372 0.559017 
0.353553 0.25 0.353553 0.559017 0.612372 0.433013 0.353553 0.433013 0.612372 
0.75 0.612372 0.559017 0.612372 0.75 0.75 0.707107 0.75 0.75 
0.612372 0.559017 0.612372 0.75 0.707107 0.559017 0.5 0.559017 0.707107 
0.75 0.612372 0.559017 0.612372 0.75 0.75 0.707107 0.75 
METADATA
INFORMATION 0

Polynomial 1 125 float
1 2 2 3 2 3 3 4 1 
1 1 1 1 1 1 2 1 1 
1 1 2 1 1 1 1 2 2 
2 2 1 1 1 1 2 1 1 
1 1 2 1 1 1 1 2 1 
1 1 1 2 2 2 2 2 3 
1 1 1 1 2 1 1 1 1 
2 1 1 1 1 2 1 1 1 
1 2 2 2 2 2 3 1 1 
1 1 2 1 1 1 1 2 1 
1 1 1 2 1 1 1 1 2 
2 2 2 2 3 2 2 2 2 
2 2 2 3 2 2 2 2 3 
2 2 2 2 3 3 3 3 
METADATA
INFORMATION 0

