# vtk DataFile Version 4.2
vtk output
ASCII
DATASET UNSTRUCTURED_GRID
POINTS 72 float
0 0 0 4 0 0 4 4 0 
0 4 0 0 0 4 3.5 0 4.5 
4.5 4.5 4.5 0 4 4 2 0 0 
4 2 0 2 4 0 0 2 0 
2 0 4 4 2 4 2 4 4 
0 2 4 0.5 0.5 2 4 0 2 
0 4 2 4 4 2 0 2 2 
4 2 2 2 0 2 2 4 2 
2 2 0 2 2 4 2 2 2 
8 0 0 8 4 0 8 0 4 
8 4 4 6 0 0 8 2 0 
6 4 0 6 0 4 8 2 4 
6 4 4 8 0 2 8 4 2 
8 2 2 6 0 2 6 4 2 
6 2 0 6 2 4 6 2 2 
-1 0 0 -1 4 0 -1 4 4 
-1 0 4 -1 2 0 -1 4 2 
-1 2 4 -0.5 0.5 2 -1 2 2 
4 -1 0 3.5 -1 4.5 2 -1 0 
4 -1 2 2 -1 4 2 -1 2 
0 -1 0 0 -1 4 0 -0.5 2 
12 0 2 12 4 2 10 0 1 
12 2 2 10 4 1 10 0 3 
10 4 3 10 2 1 10 2 3 

METADATA
INFORMATION 2
NAME L2_NORM_RANGE LOCATION vtkDataArray
DATA 2 0 12.8062 
NAME L2_NORM_FINITE_RANGE LOCATION vtkDataArray
DATA 2 0 12.8062 

CELLS 1 19
18 27 63 29 28 64 30 65 68 37 67 69 38 32 66 35 70 71 39 

CELL_TYPES 1
73

CELL_DATA 5
FIELD FieldData 1
SrcCellNum 1 5 float
0 1 2 3 4 
METADATA
INFORMATION 0

POINT_DATA 72
FIELD FieldData 1
Ellipsoid 1 72 float
0 0 0 0 0 0 0 0 1 
1 1 1 1 1 1 1 1 1 
1 1 2 2 2 2 2 2 3 
0 0 0 0 1 1 1 1 1 
1 1 1 3 2 2 2 2 5 
0 0 0 0 1 1 1 1 2 
0 0 1 1 1 2 0 0 1 
0 0 1 1 1 1 1 2 2 

METADATA
INFORMATION 0

