# vtk DataFile Version 4.2
vtk output
ASCII
DATASET UNSTRUCTURED_GRID
POINTS 124 double
0 0 0 1 0 0 2 0 0 
3 0 0 0 1 0 1 1 0 
2 1 0 3 1 0 0 2 0 
1 2 0 2 2 0 3 2 0 
0 3 0 1 3 0 2 3 0 
3 3 0 0.33333333333 0 0 0.66666666667 0 0 
0 0.33333333333 0 0.33333333333 0.33333333333 0 0.66666666667 0.33333333333 0 
1 0.33333333333 0 0 0.66666666667 0 0.33333333333 0.66666666667 0 
0.66666666667 0.66666666667 0 1 0.66666666667 0 0.33333333333 1 0 
0.66666666667 1 0 1.3333333333 0 0 1.6666666667 0 0 
1 0.33333333333 0 1.3333333333 0.33333333333 0 1.6666666667 0.33333333333 0 
2 0.33333333333 0 1 0.66666666667 0 1.3333333333 0.66666666667 0 
1.6666666667 0.66666666667 0 2 0.66666666667 0 1.3333333333 1 0 
1.6666666667 1 0 2.3333333333 0 0 2.6666666667 0 0 
2 0.33333333333 0 2.3333333333 0.33333333333 0 2.6666666667 0.33333333333 0 
3 0.33333333333 0 2 0.66666666667 0 2.3333333333 0.66666666667 0 
2.6666666667 0.66666666667 0 3 0.66666666667 0 2.3333333333 1 0 
2.6666666667 1 0 0.33333333333 1 0 0.66666666667 1 0 
0 1.3333333333 0 0.33333333333 1.3333333333 0 0.66666666667 1.3333333333 0 
1 1.3333333333 0 0 1.6666666667 0 0.33333333333 1.6666666667 0 
0.66666666667 1.6666666667 0 1 1.6666666667 0 0.33333333333 2 0 
0.66666666667 2 0 1.3333333333 1 0 1.6666666667 1 0 
1 1.3333333333 0 1.3333333333 1.3333333333 0 1.6666666667 1.3333333333 0 
2 1.3333333333 0 1 1.6666666667 0 1.3333333333 1.6666666667 0 
1.6666666667 1.6666666667 0 2 1.6666666667 0 1.3333333333 2 0 
1.6666666667 2 0 2.3333333333 1 0 2.6666666667 1 0 
2 1.3333333333 0 2.3333333333 1.3333333333 0 2.6666666667 1.3333333333 0 
3 1.3333333333 0 2 1.6666666667 0 2.3333333333 1.6666666667 0 
2.6666666667 1.6666666667 0 3 1.6666666667 0 2.3333333333 2 0 
2.6666666667 2 0 0.33333333333 2 0 0.66666666667 2 0 
0 2.3333333333 0 0.33333333333 2.3333333333 0 0.66666666667 2.3333333333 0 
1 2.3333333333 0 0 2.6666666667 0 0.33333333333 2.6666666667 0 
0.66666666667 2.6666666667 0 1 2.6666666667 0 0.33333333333 3 0 
0.66666666667 3 0 1.3333333333 2 0 1.6666666667 2 0 
1 2.3333333333 0 1.3333333333 2.3333333333 0 1.6666666667 2.3333333333 0 
2 2.3333333333 0 1 2.6666666667 0 1.3333333333 2.6666666667 0 
1.6666666667 2.6666666667 0 2 2.6666666667 0 1.3333333333 3 0 
1.6666666667 3 0 2.3333333333 2 0 2.6666666667 2 0 
2 2.3333333333 0 2.3333333333 2.3333333333 0 2.6666666667 2.3333333333 0 
3 2.3333333333 0 2 2.6666666667 0 2.3333333333 2.6666666667 0 
2.6666666667 2.6666666667 0 3 2.6666666667 0 2.3333333333 3 0 
2.6666666667 3 0 
METADATA
INFORMATION 2
NAME L2_NORM_RANGE LOCATION vtkDataArray
DATA 2 0 4.24264 
NAME L2_NORM_FINITE_RANGE LOCATION vtkDataArray
DATA 2 0 4.24264 

CELLS 1 17
16 0 1 5 4 16 17 21 25 26 27 18 22 19 20 23 24 


CELL_TYPES 1
70


POINT_DATA 124
FIELD FieldData 2
DistanceToCenter 1 124 double
2.1213203436 1.5811388301 1.5811388301 2.1213203436 1.5811388301 0.70710678119 0.70710678119 1.5811388301 1.5811388301 
0.70710678119 0.70710678119 1.5811388301 2.1213203436 1.5811388301 1.5811388301 2.1213203436 1.9002923752 1.7159383568 
1.9002923752 1.6499158228 1.4337208778 1.2692955176 1.7159383568 1.4337208778 1.178511302 0.97182531581 1.2692955176 
0.97182531581 1.5092308564 1.5092308564 1.2692955176 1.178511302 1.178511302 1.2692955176 0.97182531581 0.8498365856 
0.8498365856 0.97182531581 0.52704627669 0.52704627669 1.7159383568 1.9002923752 1.2692955176 1.4337208778 1.6499158228 
1.9002923752 0.97182531581 1.178511302 1.4337208778 1.7159383568 0.97182531581 1.2692955176 1.2692955176 0.97182531581 
1.5092308564 1.178511302 0.8498365856 0.52704627669 1.5092308564 1.178511302 0.8498365856 0.52704627669 1.2692955176 
0.97182531581 0.52704627669 0.52704627669 0.52704627669 0.2357022604 0.2357022604 0.52704627669 0.52704627669 0.2357022604 
0.2357022604 0.52704627669 0.52704627669 0.52704627669 0.97182531581 1.2692955176 0.52704627669 0.8498365856 1.178511302 
1.5092308564 0.52704627669 0.8498365856 1.178511302 1.5092308564 0.97182531581 1.2692955176 1.2692955176 0.97182531581 
1.7159383568 1.4337208778 1.178511302 0.97182531581 1.9002923752 1.6499158228 1.4337208778 1.2692955176 1.9002923752 
1.7159383568 0.52704627669 0.52704627669 0.97182531581 0.8498365856 0.8498365856 0.97182531581 1.2692955176 1.178511302 
1.178511302 1.2692955176 1.5092308564 1.5092308564 0.97182531581 1.2692955176 0.97182531581 1.178511302 1.4337208778 
1.7159383568 1.2692955176 1.4337208778 1.6499158228 1.9002923752 1.7159383568 1.9002923752 
METADATA
INFORMATION 0

Polynomial 1 124 double
1 2 3 4 2 3 4 5 3 
4 5 6 4 5 6 7 1 1 
1 1 1 2 1 1 1 2 2 
2 2 2 2 2 2 3 2 2 
2 3 3 3 3 3 3 3 3 
4 3 3 3 4 4 4 2 2 
2 2 2 3 2 2 2 3 3 
3 3 3 3 3 3 4 3 3 
3 4 4 4 4 4 4 4 4 
5 4 4 4 5 5 5 3 3 
3 3 3 4 3 3 3 4 4 
4 4 4 4 4 4 5 4 4 
4 5 5 5 5 5 5 5 5 
6 5 5 5 6 6 6 
METADATA
INFORMATION 0

