# vtk DataFile Version 4.2
vtk output
ASCII
DATASET UNSTRUCTURED_GRID
POINTS 124 double
0 0 0 1 0 0 2 0 0 
3 0 0 0 1 0 1 1 0 
2 1 0 3 1 0 0 2 0 
1 2 0 2 2 0 3 2 0 
0 3 0 1 3 0 2 3 0 
3 3 0 0.33333333333 0 0 0.66666666667 0 0 
0 0.33333333333 0 0.33333333333 0.33333333333 0 0.66666666667 0.33333333333 0 
1 0.33333333333 0 0 0.66666666667 0 0.33333333333 0.66666666667 0 
0.66666666667 0.66666666667 0 1 0.66666666667 0 0.33333333333 1 0 
0.66666666667 1 0 1.3333333333 0 0 1.6666666667 0 0 
1 0.33333333333 0 1.3333333333 0.33333333333 0 1.6666666667 0.33333333333 0 
2 0.33333333333 0 1 0.66666666667 0 1.3333333333 0.66666666667 0 
1.6666666667 0.66666666667 0 2 0.66666666667 0 1.3333333333 1 0 
1.6666666667 1 0 2.3333333333 0 0 2.6666666667 0 0 
2 0.33333333333 0 2.3333333333 0.33333333333 0 2.6666666667 0.33333333333 0 
3 0.33333333333 0 2 0.66666666667 0 2.3333333333 0.66666666667 0 
2.6666666667 0.66666666667 0 3 0.66666666667 0 2.3333333333 1 0 
2.6666666667 1 0 0.33333333333 1 0 0.66666666667 1 0 
0 1.3333333333 0 0.33333333333 1.3333333333 0 0.66666666667 1.3333333333 0 
1 1.3333333333 0 0 1.6666666667 0 0.33333333333 1.6666666667 0 
0.66666666667 1.6666666667 0 1 1.6666666667 0 0.33333333333 2 0 
0.66666666667 2 0 1.3333333333 1 0 1.6666666667 1 0 
1 1.3333333333 0 1.3333333333 1.3333333333 0 1.6666666667 1.3333333333 0 
2 1.3333333333 0 1 1.6666666667 0 1.3333333333 1.6666666667 0 
1.6666666667 1.6666666667 0 2 1.6666666667 0 1.3333333333 2 0 
1.6666666667 2 0 2.3333333333 1 0 2.6666666667 1 0 
2 1.3333333333 0 2.3333333333 1.3333333333 0 2.6666666667 1.3333333333 0 
3 1.3333333333 0 2 1.6666666667 0 2.3333333333 1.6666666667 0 
2.6666666667 1.6666666667 0 3 1.6666666667 0 2.3333333333 2 0 
2.6666666667 2 0 0.33333333333 2 0 0.66666666667 2 0 
0 2.3333333333 0 0.33333333333 2.3333333333 0 0.66666666667 2.3333333333 0 
1 2.3333333333 0 0 2.6666666667 0 0.33333333333 2.6666666667 0 
0.66666666667 2.6666666667 0 1 2.6666666667 0 0.33333333333 3 0 
0.66666666667 3 0 1.3333333333 2 0 1.6666666667 2 0 
1 2.3333333333 0 1.3333333333 2.3333333333 0 1.6666666667 2.3333333333 0 
2 2.3333333333 0 1 2.6666666667 0 1.3333333333 2.6666666667 0 
1.6666666667 2.6666666667 0 2 2.6666666667 0 1.3333333333 3 0 
1.6666666667 3 0 2.3333333333 2 0 2.6666666667 2 0 
2 2.3333333333 0 2.3333333333 2.3333333333 0 2.6666666667 2.3333333333 0 
3 2.3333333333 0 2 2.6666666667 0 2.3333333333 2.6666666667 0 
2.6666666667 2.6666666667 0 3 2.6666666667 0 2.3333333333 3 0 
2.6666666667 3 0 
METADATA
INFORMATION 2
NAME L2_NORM_RANGE LOCATION vtkDataArray
DATA 2 0 4.24264 
NAME L2_NORM_FINITE_RANGE LOCATION vtkDataArray
DATA 2 0 4.24264 

CELLS 9 153
16 0 1 5 4 16 17 21 25 26 27 18 22 19 20 23 24 
16 1 2 6 5 28 29 33 37 38 39 30 34 31 32 35 36 
16 2 3 7 6 40 41 45 49 50 51 42 46 43 44 47 48 
16 4 5 9 8 52 53 57 61 62 63 54 58 55 56 59 60 
16 5 6 10 9 64 65 69 73 74 75 66 70 67 68 71 72 
16 6 7 11 10 76 77 81 85 86 87 78 82 79 80 83 84 
16 8 9 13 12 88 89 93 97 98 99 90 94 91 92 95 96 
16 9 10 14 13 100 101 105 109 110 111 102 106 103 104 107 108 
16 10 11 15 14 112 113 117 121 122 123 114 118 115 116 119 120 

CELL_TYPES 9
70
70
70
70
70
70
70
70
70

POINT_DATA 124
FIELD FieldData 2
DistanceToCenter 1 124 double
2.1213203436 1.5811388301 1.5811388301 2.1213203436 1.5811388301 0.70710678119 0.70710678119 1.5811388301 1.5811388301 
0.70710678119 0.70710678119 1.5811388301 2.1213203436 1.5811388301 1.5811388301 2.1213203436 1.9002923752 1.7159383568 
1.9002923752 1.6499158228 1.4337208778 1.2692955176 1.7159383568 1.4337208778 1.178511302 0.97182531581 1.2692955176 
0.97182531581 1.5092308564 1.5092308564 1.2692955176 1.178511302 1.178511302 1.2692955176 0.97182531581 0.8498365856 
0.8498365856 0.97182531581 0.52704627669 0.52704627669 1.7159383568 1.9002923752 1.2692955176 1.4337208778 1.6499158228 
1.9002923752 0.97182531581 1.178511302 1.4337208778 1.7159383568 0.97182531581 1.2692955176 1.2692955176 0.97182531581 
1.5092308564 1.178511302 0.8498365856 0.52704627669 1.5092308564 1.178511302 0.8498365856 0.52704627669 1.2692955176 
0.97182531581 0.52704627669 0.52704627669 0.52704627669 0.2357022604 0.2357022604 0.52704627669 0.52704627669 0.2357022604 
0.2357022604 0.52704627669 0.52704627669 0.52704627669 0.97182531581 1.2692955176 0.52704627669 0.8498365856 1.178511302 
1.5092308564 0.52704627669 0.8498365856 1.178511302 1.5092308564 0.97182531581 1.2692955176 1.2692955176 0.97182531581 
1.7159383568 1.4337208778 1.178511302 0.97182531581 1.9002923752 1.6499158228 1.4337208778 1.2692955176 1.9002923752 
1.7159383568 0.52704627669 0.52704627669 0.97182531581 0.8498365856 0.8498365856 0.97182531581 1.2692955176 1.178511302 
1.178511302 1.2692955176 1.5092308564 1.5092308564 0.97182531581 1.2692955176 0.97182531581 1.178511302 1.4337208778 
1.7159383568 1.2692955176 1.4337208778 1.6499158228 1.9002923752 1.7159383568 1.9002923752 
METADATA
INFORMATION 0

Polynomial 1 124 double
1 2 3 4 2 3 4 5 3 
4 5 6 4 5 6 7 1 1 
1 1 1 2 1 1 1 2 2 
2 2 2 2 2 2 3 2 2 
2 3 3 3 3 3 3 3 3 
4 3 3 3 4 4 4 2 2 
2 2 2 3 2 2 2 3 3 
3 3 3 3 3 3 4 3 3 
3 4 4 4 4 4 4 4 4 
5 4 4 4 5 5 5 3 3 
3 3 3 4 3 3 3 4 4 
4 4 4 4 4 4 5 4 4 
4 5 5 5 5 5 5 5 5 
6 5 5 5 6 6 6 
METADATA
INFORMATION 0

