# vtk DataFile Version 4.2
vtk output
ASCII
DATASET UNSTRUCTURED_GRID
POINTS 4 float
0 0 0 1 0 0 0.333333 0 0 
0.666667 0 0 
METADATA
INFORMATION 2
NAME L2_NORM_RANGE LOCATION vtkDataArray
DATA 2 0 1 
NAME L2_NORM_FINITE_RANGE LOCATION vtkDataArray
DATA 2 0 1 

CELLS 1 5
4 0 2 3 1 

CELL_TYPES 1
68

POINT_DATA 4
FIELD FieldData 2
DistanceToCenter 1 4 float
0.5 0.5 0.166667 0.166667 
METADATA
INFORMATION 0

Polynomial 1 4 float
1 2 1 1 
METADATA
INFORMATION 0

