# vtk DataFile Version 4.2
vtk output
ASCII
DATASET UNSTRUCTURED_GRID
POINTS 26 float
0 0 0 1 0 0 0 1 0 
1 1 0 0 0 1 1 0 1 
0 1 1 1 1 1 0.5 0 0 
0 0.5 0 0.5 0.5 0 0 0 0.5 
0.5 0 0.5 0 0.5 0.5 1 0.5 0 
0.5 1 0 1 0.5 0.5 1 1 0.5 
0.5 1 0.5 0 0.5 1 0.5 0.5 1 
0.5 1 1 0 1 0.5 0.5 0 1 
1 0.5 1 1 0 0.5 
METADATA
INFORMATION 2
NAME L2_NORM_RANGE LOCATION vtkDataArray
DATA 2 0 1.73205 
NAME L2_NORM_FINITE_RANGE LOCATION vtkDataArray
DATA 2 0 1.73205 

CELLS 5 55
10 0 1 2 4 8 10 9 11 12 13 
10 1 3 2 7 14 15 10 16 17 18 
10 4 6 7 2 19 21 20 13 22 18 
10 4 7 5 1 20 24 23 12 16 25 
10 1 4 7 2 12 20 16 10 13 18 

CELL_TYPES 5
71
71
71
71
71

POINT_DATA 26
FIELD FieldData 2
DistanceToCenter 1 26 float
0.866025 0.866025 0.866025 0.866025 0.866025 0.866025 0.866025 0.866025 0.707107 
0.707107 0.5 0.707107 0.5 0.5 0.707107 0.707107 0.5 0.707107 
0.5 0.707107 0.5 0.707107 0.707107 0.707107 0.707107 0.707107 
METADATA
INFORMATION 0

Polynomial 1 26 float
1 6 6 21 6 21 21 56 1 
1 1 1 1 1 6 6 6 21 
6 6 6 21 6 6 21 6 
METADATA
INFORMATION 0

