# vtk DataFile Version 4.2
vtk output
ASCII
DATASET UNSTRUCTURED_GRID
POINTS 115 float
0 0 0 1 0 0 0 1 0 
1 1 0 0 0 1 1 0 1 
0 1 1 1 1 1 0.25 0 0 
0.5 0 0 0.75 0 0 0 0.25 0 
0.25 0.25 0 0.5 0.25 0 0.75 0.25 0 
0 0.5 0 0.25 0.5 0 0.5 0.5 0 
0 0.75 0 0.25 0.75 0 0 0 0.25 
0.25 0 0.25 0.5 0 0.25 0.75 0 0.25 
0 0.25 0.25 0.25 0.25 0.25 0.5 0.25 0.25 
0 0.5 0.25 0.25 0.5 0.25 0 0.75 0.25 
0 0 0.5 0.25 0 0.5 0.5 0 0.5 
0 0.25 0.5 0.25 0.25 0.5 0 0.5 0.5 
0 0 0.75 0.25 0 0.75 0 0.25 0.75 
1 0.25 0 1 0.5 0 1 0.75 0 
0.75 0.5 0 0.75 0.75 0 0.75 1 0 
0.5 0.75 0 0.5 1 0 0.25 1 0 
1 0.25 0.25 1 0.5 0.25 1 0.75 0.25 
1 1 0.25 0.75 0.5 0.25 0.75 0.75 0.25 
0.75 1 0.25 0.5 0.75 0.25 0.5 1 0.25 
0.25 1 0.25 1 0.5 0.5 1 0.75 0.5 
1 1 0.5 0.75 0.75 0.5 0.75 1 0.5 
0.5 1 0.5 1 0.75 0.75 1 1 0.75 
0.75 1 0.75 0 0.25 1 0 0.5 1 
0 0.75 1 0.25 0.25 1 0.25 0.5 1 
0.25 0.75 1 0.25 1 1 0.5 0.5 1 
0.5 0.75 1 0.5 1 1 0.75 0.75 1 
0.75 1 1 0 0.5 0.75 0 0.75 0.75 
0 1 0.75 0.25 0.5 0.75 0.25 0.75 0.75 
0.25 1 0.75 0.5 0.75 0.75 0.5 1 0.75 
0 0.75 0.5 0 1 0.5 0.25 0.75 0.5 
0.25 1 0.5 0 1 0.25 0.25 0 1 
0.5 0.25 1 0.75 0.5 1 1 0.75 1 
0.5 0 1 0.75 0.25 1 1 0.5 1 
0.75 0 1 1 0.25 1 0.5 0.25 0.75 
0.75 0.5 0.75 0.5 0 0.75 0.75 0.25 0.75 
1 0.5 0.75 0.75 0 0.75 1 0.25 0.75 
1 0 0.75 0.75 0.25 0.5 0.75 0 0.5 
1 0.25 0.5 1 0 0.5 1 0 0.25 
0.5 0.5 0.5 
METADATA
INFORMATION 2
NAME L2_NORM_RANGE LOCATION vtkDataArray
DATA 2 0 1.73205 
NAME L2_NORM_FINITE_RANGE LOCATION vtkDataArray
DATA 2 0 1.73205 

CELLS 1 36
35 0 1 2 4 8 9 10 14 17 19 18 15 11 20 30 36 23 32 37 29 35 38 21 22 31 28 34 26 24 33 27 12 16 13 25 

CELL_TYPES 1 
71

POINT_DATA 115
FIELD FieldData 2
DistanceToCenter 1 115 float
0.866025 0.866025 0.866025 0.866025 0.866025 0.866025 0.866025 0.866025 0.75 
0.707107 0.75 0.75 0.612372 0.559017 0.612372 0.707107 0.559017 0.5 
0.75 0.612372 0.75 0.612372 0.559017 0.612372 0.612372 0.433013 0.353553 
0.559017 0.353553 0.612372 0.707107 0.559017 0.5 0.559017 0.353553 0.5 
0.75 0.612372 0.612372 0.75 0.707107 0.75 0.559017 0.612372 0.75 
0.559017 0.707107 0.75 0.612372 0.559017 0.612372 0.75 0.353553 0.433013 
0.612372 0.353553 0.559017 0.612372 0.5 0.559017 0.707107 0.353553 0.559017 
0.5 0.612372 0.75 0.612372 0.75 0.707107 0.75 0.612372 0.559017 
0.612372 0.75 0.5 0.559017 0.707107 0.612372 0.75 0.559017 0.612372 
0.75 0.353553 0.433013 0.612372 0.353553 0.559017 0.559017 0.707107 0.353553 
0.559017 0.75 0.75 0.559017 0.559017 0.75 0.707107 0.612372 0.707107 
0.75 0.75 0.353553 0.353553 0.559017 0.433013 0.559017 0.612372 0.612372 
0.75 0.353553 0.559017 0.559017 0.707107 0.75 0 
METADATA
INFORMATION 0

Polynomial 1 115 float
1 6 6 21 6 21 21 56 1 
1 1 1 1 1 1 1 1 1 
1 1 1 1 1 1 1 1 1 
1 1 1 1 1 1 1 1 1 
1 1 1 6 6 6 1 1 6 
1 6 6 6 6 6 21 1 1 
6 1 6 6 6 6 21 1 6 
6 6 21 6 6 6 6 6 6 
6 21 6 6 21 6 21 1 1 
6 1 1 6 1 6 1 6 1 
6 6 6 6 6 21 6 6 21 
6 21 1 1 1 1 6 1 6 
6 1 1 6 6 6 1 
METADATA
INFORMATION 0

