# vtk DataFile Version 4.2
vtk output
ASCII
DATASET UNSTRUCTURED_GRID
POINTS 115 float
0 0 0 1 0 0 0 1 0 
1 1 0 0 0 1 1 0 1 
0 1 1 1 1 1 0.25 0 0 
0.5 0 0 0.75 0 0 0 0.25 0 
0.25 0.25 0 0.5 0.25 0 0.75 0.25 0 
0 0.5 0 0.25 0.5 0 0.5 0.5 0 
0 0.75 0 0.25 0.75 0 0 0 0.25 
0.25 0 0.25 0.5 0 0.25 0.75 0 0.25 
0 0.25 0.25 0.25 0.25 0.25 0.5 0.25 0.25 
0 0.5 0.25 0.25 0.5 0.25 0 0.75 0.25 
0 0 0.5 0.25 0 0.5 0.5 0 0.5 
0 0.25 0.5 0.25 0.25 0.5 0 0.5 0.5 
0 0 0.75 0.25 0 0.75 0 0.25 0.75 
1 0.25 0 1 0.5 0 1 0.75 0 
0.75 0.5 0 0.75 0.75 0 0.75 1 0 
0.5 0.75 0 0.5 1 0 0.25 1 0 
1 0.25 0.25 1 0.5 0.25 1 0.75 0.25 
1 1 0.25 0.75 0.5 0.25 0.75 0.75 0.25 
0.75 1 0.25 0.5 0.75 0.25 0.5 1 0.25 
0.25 1 0.25 1 0.5 0.5 1 0.75 0.5 
1 1 0.5 0.75 0.75 0.5 0.75 1 0.5 
0.5 1 0.5 1 0.75 0.75 1 1 0.75 
0.75 1 0.75 0 0.25 1 0 0.5 1 
0 0.75 1 0.25 0.25 1 0.25 0.5 1 
0.25 0.75 1 0.25 1 1 0.5 0.5 1 
0.5 0.75 1 0.5 1 1 0.75 0.75 1 
0.75 1 1 0 0.5 0.75 0 0.75 0.75 
0 1 0.75 0.25 0.5 0.75 0.25 0.75 0.75 
0.25 1 0.75 0.5 0.75 0.75 0.5 1 0.75 
0 0.75 0.5 0 1 0.5 0.25 0.75 0.5 
0.25 1 0.5 0 1 0.25 0.25 0 1 
0.5 0.25 1 0.75 0.5 1 1 0.75 1 
0.5 0 1 0.75 0.25 1 1 0.5 1 
0.75 0 1 1 0.25 1 0.5 0.25 0.75 
0.75 0.5 0.75 0.5 0 0.75 0.75 0.25 0.75 
1 0.5 0.75 0.75 0 0.75 1 0.25 0.75 
1 0 0.75 0.75 0.25 0.5 0.75 0 0.5 
1 0.25 0.5 1 0 0.5 1 0 0.25 
0.5 0.5 0.5 
METADATA
INFORMATION 2
NAME L2_NORM_RANGE LOCATION vtkDataArray
DATA 2 0 1.73205 
NAME L2_NORM_FINITE_RANGE LOCATION vtkDataArray
DATA 2 0 1.73205 

CELLS 5 180
35 0 1 2 4 8 9 10 14 17 19 18 15 11 20 30 36 23 32 37 29 35 38 21 22 31 28 34 26 24 33 27 12 16 13 25 
35 1 3 2 7 39 40 41 44 46 47 19 17 14 48 58 64 51 60 65 57 63 66 49 50 59 56 62 54 52 61 55 42 45 43 53 
35 4 6 7 2 67 68 69 73 76 78 77 74 70 38 35 29 81 88 91 66 63 57 79 80 87 86 90 84 82 89 85 71 75 72 83 
35 4 7 5 1 70 74 77 95 98 100 99 96 92 37 32 23 64 58 48 108 112 113 101 102 109 107 111 105 103 110 106 93 97 94 104 
35 1 4 7 2 23 32 37 70 74 77 64 58 48 14 17 19 38 35 29 66 63 57 26 34 28 85 89 82 52 55 61 109 102 101 114 

CELL_TYPES 5
71
71
71
71
71

POINT_DATA 115
FIELD FieldData 2
DistanceToCenter 1 115 float
0.866025 0.866025 0.866025 0.866025 0.866025 0.866025 0.866025 0.866025 0.75 
0.707107 0.75 0.75 0.612372 0.559017 0.612372 0.707107 0.559017 0.5 
0.75 0.612372 0.75 0.612372 0.559017 0.612372 0.612372 0.433013 0.353553 
0.559017 0.353553 0.612372 0.707107 0.559017 0.5 0.559017 0.353553 0.5 
0.75 0.612372 0.612372 0.75 0.707107 0.75 0.559017 0.612372 0.75 
0.559017 0.707107 0.75 0.612372 0.559017 0.612372 0.75 0.353553 0.433013 
0.612372 0.353553 0.559017 0.612372 0.5 0.559017 0.707107 0.353553 0.559017 
0.5 0.612372 0.75 0.612372 0.75 0.707107 0.75 0.612372 0.559017 
0.612372 0.75 0.5 0.559017 0.707107 0.612372 0.75 0.559017 0.612372 
0.75 0.353553 0.433013 0.612372 0.353553 0.559017 0.559017 0.707107 0.353553 
0.559017 0.75 0.75 0.559017 0.559017 0.75 0.707107 0.612372 0.707107 
0.75 0.75 0.353553 0.353553 0.559017 0.433013 0.559017 0.612372 0.612372 
0.75 0.353553 0.559017 0.559017 0.707107 0.75 0 
METADATA
INFORMATION 0

Polynomial 1 115 float
1 6 6 21 6 21 21 56 1 
1 1 1 1 1 1 1 1 1 
1 1 1 1 1 1 1 1 1 
1 1 1 1 1 1 1 1 1 
1 1 1 6 6 6 1 1 6 
1 6 6 6 6 6 21 1 1 
6 1 6 6 6 6 21 1 6 
6 6 21 6 6 6 6 6 6 
6 21 6 6 21 6 21 1 1 
6 1 1 6 1 6 1 6 1 
6 6 6 6 6 21 6 6 21 
6 21 1 1 1 1 6 1 6 
6 1 1 6 6 6 1 
METADATA
INFORMATION 0

