# vtk DataFile Version 4.2
vtk output
ASCII
DATASET UNSTRUCTURED_GRID
POINTS 8 float
0 0 0 1 0 0 0 1 0 
1 1 0 0 0 1 1 0 1 
0 1 1 1 1 1 
METADATA
INFORMATION 2
NAME L2_NORM_RANGE LOCATION vtkDataArray
DATA 2 0 1.73205 
NAME L2_NORM_FINITE_RANGE LOCATION vtkDataArray
DATA 2 0 1.73205 

CELLS 5 25
4 0 1 2 4 
4 1 3 2 7 
4 4 6 7 2 
4 4 7 5 1 
4 1 4 7 2 

CELL_TYPES 5
71
71
71
71
71

POINT_DATA 8
FIELD FieldData 2
DistanceToCenter 1 8 float
0.866025 0.866025 0.866025 0.866025 0.866025 0.866025 0.866025 0.866025 
METADATA
INFORMATION 0

Polynomial 1 8 float
1 6 6 21 6 21 21 56 
METADATA
INFORMATION 0

