# vtk DataFile Version 4.2
vtk output
ASCII
DATASET UNSTRUCTURED_GRID
POINTS 16 float
0 0 0 1 0 0 0 1 0 
1 1 0 0.333333 0 0 0.666667 0 0 
0 0.333333 0 0.333333 0.333333 0 0.666667 0.333333 0 
1 0.333333 0 0 0.666667 0 0.333333 0.666667 0 
0.666667 0.666667 0 1 0.666667 0 0.333333 1 0 
0.666667 1 0 
METADATA
INFORMATION 2
NAME L2_NORM_RANGE LOCATION vtkDataArray
DATA 2 0 1.41421 
NAME L2_NORM_FINITE_RANGE LOCATION vtkDataArray
DATA 2 0 1.41421 

CELLS 2 22
10 0 1 2 4 5 8 11 10 6 7 
10 3 2 1 15 14 11 8 9 13 12 

CELL_TYPES 2
69
69

POINT_DATA 16
FIELD FieldData 2
DistanceToCenter 1 16 float
0.707107 0.707107 0.707107 0.707107 0.527046 0.527046 0.527046 0.235702 0.235702 
0.527046 0.527046 0.235702 0.235702 0.527046 0.527046 0.527046 
METADATA
INFORMATION 0

Polynomial 1 16 float
1 2 2 3 1 1 1 1 1 
2 1 1 1 2 2 2 
METADATA
INFORMATION 0

