# vtk DataFile Version 4.2
vtk output
ASCII
DATASET UNSTRUCTURED_GRID
POINTS 36 float
0 0 0 1 0 0 0 1 0 
1 1 0 0.2 0 0 0.4 0 0 
0.6 0 0 0.8 0 0 0 0.2 0 
0.2 0.2 0 0.4 0.2 0 0.6 0.2 0 
0.8 0.2 0 1 0.2 0 0 0.4 0 
0.2 0.4 0 0.4 0.4 0 0.6 0.4 0 
0.8 0.4 0 1 0.4 0 0 0.6 0 
0.2 0.6 0 0.4 0.6 0 0.6 0.6 0 
0.8 0.6 0 1 0.6 0 0 0.8 0 
0.2 0.8 0 0.4 0.8 0 0.6 0.8 0 
0.8 0.8 0 1 0.8 0 0.2 1 0 
0.4 1 0 0.6 1 0 0.8 1 0 

METADATA
INFORMATION 2
NAME L2_NORM_RANGE LOCATION vtkDataArray
DATA 2 0 1.41421 
NAME L2_NORM_FINITE_RANGE LOCATION vtkDataArray
DATA 2 0 1.41421 

CELLS 1 22
21 0 1 2 4 5 6 7 12 17 22 27 26 20 14 8 9 11 21 10 16 15 

CELL_TYPES 1
69

POINT_DATA 36
FIELD FieldData 2
DistanceToCenter 1 36 float
0.707107 0.707107 0.707107 0.707107 0.583095 0.509902 0.509902 0.583095 0.583095 
0.424264 0.316228 0.316228 0.424264 0.583095 0.509902 0.316228 0.141421 0.141421 
0.316228 0.509902 0.509902 0.316228 0.141421 0.141421 0.316228 0.509902 0.583095 
0.424264 0.316228 0.316228 0.424264 0.583095 0.583095 0.509902 0.509902 0.583095 

METADATA
INFORMATION 0

Polynomial 1 36 float
1 2 2 3 1 1 1 1 1 
1 1 1 1 2 1 1 1 1 
1 2 1 1 1 1 1 2 1 
1 1 1 1 2 2 2 2 2 

METADATA
INFORMATION 0

