# vtk DataFile Version 4.2
vtk output
ASCII
DATASET UNSTRUCTURED_GRID
POINTS 8 float
0 0 0 1 0 0 0 1 0 
1 1 0 0 0 1 1 0 1 
0 1 1 1 1 1 
METADATA
INFORMATION 2
NAME L2_NORM_RANGE LOCATION vtkDataArray
DATA 2 0 1.73205 
NAME L2_NORM_FINITE_RANGE LOCATION vtkDataArray
DATA 2 0 1.73205 

CELLS 1 7
6 0 1 2 4 5 6 

CELL_TYPES 1
73

POINT_DATA 8
FIELD FieldData 2
DistanceToCenter 1 8 float
0.866025 0.866025 0.866025 0.866025 0.866025 0.866025 0.866025 0.866025 
METADATA
INFORMATION 0

Polynomial 1 8 float
1 6 6 21 6 21 21 56 
METADATA
INFORMATION 0

