# vtk DataFile Version 4.2
vtk output
ASCII
DATASET UNSTRUCTURED_GRID
POINTS 216 float
0 0 0 1 0 0 0 1 0 
1 1 0 0 0 1 1 0 1 
0 1 1 1 1 1 0.2 0 0 
0.4 0 0 0.6 0 0 0.8 0 0 
0 0.2 0 0.2 0.2 0 0.4 0.2 0 
0.6 0.2 0 0.8 0.2 0 1 0.2 0 
0 0.4 0 0.2 0.4 0 0.4 0.4 0 
0.6 0.4 0 0.8 0.4 0 1 0.4 0 
0 0.6 0 0.2 0.6 0 0.4 0.6 0 
0.6 0.6 0 0.8 0.6 0 1 0.6 0 
0 0.8 0 0.2 0.8 0 0.4 0.8 0 
0.6 0.8 0 0.8 0.8 0 1 0.8 0 
0.2 1 0 0.4 1 0 0.6 1 0 
0.8 1 0 0 0 0.2 0.2 0 0.2 
0.4 0 0.2 0.6 0 0.2 0.8 0 0.2 
1 0 0.2 0 0.2 0.2 0.2 0.2 0.2 
0.4 0.2 0.2 0.6 0.2 0.2 0.8 0.2 0.2 
1 0.2 0.2 0 0.4 0.2 0.2 0.4 0.2 
0.4 0.4 0.2 0.6 0.4 0.2 0.8 0.4 0.2 
1 0.4 0.2 0 0.6 0.2 0.2 0.6 0.2 
0.4 0.6 0.2 0.6 0.6 0.2 0.8 0.6 0.2 
1 0.6 0.2 0 0.8 0.2 0.2 0.8 0.2 
0.4 0.8 0.2 0.6 0.8 0.2 0.8 0.8 0.2 
1 0.8 0.2 0 1 0.2 0.2 1 0.2 
0.4 1 0.2 0.6 1 0.2 0.8 1 0.2 
1 1 0.2 0 0 0.4 0.2 0 0.4 
0.4 0 0.4 0.6 0 0.4 0.8 0 0.4 
1 0 0.4 0 0.2 0.4 0.2 0.2 0.4 
0.4 0.2 0.4 0.6 0.2 0.4 0.8 0.2 0.4 
1 0.2 0.4 0 0.4 0.4 0.2 0.4 0.4 
0.4 0.4 0.4 0.6 0.4 0.4 0.8 0.4 0.4 
1 0.4 0.4 0 0.6 0.4 0.2 0.6 0.4 
0.4 0.6 0.4 0.6 0.6 0.4 0.8 0.6 0.4 
1 0.6 0.4 0 0.8 0.4 0.2 0.8 0.4 
0.4 0.8 0.4 0.6 0.8 0.4 0.8 0.8 0.4 
1 0.8 0.4 0 1 0.4 0.2 1 0.4 
0.4 1 0.4 0.6 1 0.4 0.8 1 0.4 
1 1 0.4 0 0 0.6 0.2 0 0.6 
0.4 0 0.6 0.6 0 0.6 0.8 0 0.6 
1 0 0.6 0 0.2 0.6 0.2 0.2 0.6 
0.4 0.2 0.6 0.6 0.2 0.6 0.8 0.2 0.6 
1 0.2 0.6 0 0.4 0.6 0.2 0.4 0.6 
0.4 0.4 0.6 0.6 0.4 0.6 0.8 0.4 0.6 
1 0.4 0.6 0 0.6 0.6 0.2 0.6 0.6 
0.4 0.6 0.6 0.6 0.6 0.6 0.8 0.6 0.6 
1 0.6 0.6 0 0.8 0.6 0.2 0.8 0.6 
0.4 0.8 0.6 0.6 0.8 0.6 0.8 0.8 0.6 
1 0.8 0.6 0 1 0.6 0.2 1 0.6 
0.4 1 0.6 0.6 1 0.6 0.8 1 0.6 
1 1 0.6 0 0 0.8 0.2 0 0.8 
0.4 0 0.8 0.6 0 0.8 0.8 0 0.8 
1 0 0.8 0 0.2 0.8 0.2 0.2 0.8 
0.4 0.2 0.8 0.6 0.2 0.8 0.8 0.2 0.8 
1 0.2 0.8 0 0.4 0.8 0.2 0.4 0.8 
0.4 0.4 0.8 0.6 0.4 0.8 0.8 0.4 0.8 
1 0.4 0.8 0 0.6 0.8 0.2 0.6 0.8 
0.4 0.6 0.8 0.6 0.6 0.8 0.8 0.6 0.8 
1 0.6 0.8 0 0.8 0.8 0.2 0.8 0.8 
0.4 0.8 0.8 0.6 0.8 0.8 0.8 0.8 0.8 
1 0.8 0.8 0 1 0.8 0.2 1 0.8 
0.4 1 0.8 0.6 1 0.8 0.8 1 0.8 
1 1 0.8 0.2 0 1 0.4 0 1 
0.6 0 1 0.8 0 1 0 0.2 1 
0.2 0.2 1 0.4 0.2 1 0.6 0.2 1 
0.8 0.2 1 1 0.2 1 0 0.4 1 
0.2 0.4 1 0.4 0.4 1 0.6 0.4 1 
0.8 0.4 1 1 0.4 1 0 0.6 1 
0.2 0.6 1 0.4 0.6 1 0.6 0.6 1 
0.8 0.6 1 1 0.6 1 0 0.8 1 
0.2 0.8 1 0.4 0.8 1 0.6 0.8 1 
0.8 0.8 1 1 0.8 1 0.2 1 1 
0.4 1 1 0.6 1 1 0.8 1 1 

METADATA
INFORMATION 2
NAME L2_NORM_RANGE LOCATION vtkDataArray
DATA 2 0 1.73205 
NAME L2_NORM_FINITE_RANGE LOCATION vtkDataArray
DATA 2 0 1.73205 

CELLS 2 254
126 0 1 2 4 5 6 8 9 10 11 16 21 26 31 30 24 18 12 184 185 186 187 192 197 202 207 206 200 194 188 40 76 112 148 45 81 117 153 70 106 142 178 13 14 15 19 20 25 189 190 191 195 196 201 41 42 43 44 77 78 79 80 113 114 115 116 149 150 151 152 50 55 60 65 86 91 96 101 122 127 132 137 158 163 168 173 46 52 58 64 82 88 94 100 118 124 130 136 154 160 166 172 47 48 49 53 54 59 83 84 85 89 90 95 119 120 121 125 126 131 155 156 157 161 162 167 
126 3 2 1 7 6 5 39 38 37 36 31 26 21 16 17 23 29 35 215 214 213 212 207 202 197 192 193 199 205 211 75 111 147 183 70 106 142 178 45 81 117 153 34 33 32 28 27 22 210 209 208 204 203 198 74 73 72 71 110 109 108 107 146 145 144 143 182 181 180 179 65 60 55 50 101 96 91 86 137 132 127 122 173 168 163 158 69 63 57 51 105 99 93 87 141 135 129 123 177 171 165 159 68 67 66 62 61 56 104 103 102 98 97 92 140 139 138 134 133 128 176 175 174 170 169 164 

CELL_TYPES 2
73
73

POINT_DATA 216
FIELD FieldData 2
DistanceToCenter 1 216 float
0.866025 0.866025 0.866025 0.866025 0.866025 0.866025 0.866025 0.866025 0.768115 
0.714143 0.714143 0.768115 0.768115 0.655744 0.591608 0.591608 0.655744 0.768115 
0.714143 0.591608 0.519615 0.519615 0.591608 0.714143 0.714143 0.591608 0.519615 
0.519615 0.591608 0.714143 0.768115 0.655744 0.591608 0.591608 0.655744 0.768115 
0.768115 0.714143 0.714143 0.768115 0.768115 0.655744 0.591608 0.591608 0.655744 
0.768115 0.655744 0.519615 0.43589 0.43589 0.519615 0.655744 0.591608 0.43589 
0.331662 0.331662 0.43589 0.591608 0.591608 0.43589 0.331662 0.331662 0.43589 
0.591608 0.655744 0.519615 0.43589 0.43589 0.519615 0.655744 0.768115 0.655744 
0.591608 0.591608 0.655744 0.768115 0.714143 0.591608 0.519615 0.519615 0.591608 
0.714143 0.591608 0.43589 0.331662 0.331662 0.43589 0.591608 0.519615 0.331662 
0.173205 0.173205 0.331662 0.519615 0.519615 0.331662 0.173205 0.173205 0.331663 
0.519615 0.591608 0.43589 0.331662 0.331663 0.43589 0.591608 0.714143 0.591608 
0.519615 0.519615 0.591608 0.714143 0.714143 0.591608 0.519615 0.519615 0.591608 
0.714143 0.591608 0.43589 0.331662 0.331662 0.43589 0.591608 0.519615 0.331662 
0.173205 0.173205 0.331663 0.519615 0.519615 0.331662 0.173205 0.173205 0.331663 
0.519615 0.591608 0.43589 0.331663 0.331663 0.43589 0.591608 0.714143 0.591608 
0.519615 0.519615 0.591608 0.714143 0.768115 0.655744 0.591608 0.591608 0.655744 
0.768115 0.655744 0.519615 0.43589 0.43589 0.519615 0.655744 0.591608 0.43589 
0.331662 0.331663 0.43589 0.591608 0.591608 0.43589 0.331663 0.331663 0.43589 
0.591608 0.655744 0.519615 0.43589 0.43589 0.519615 0.655744 0.768115 0.655744 
0.591608 0.591608 0.655744 0.768115 0.768115 0.714143 0.714143 0.768115 0.768115 
0.655744 0.591608 0.591608 0.655744 0.768115 0.714143 0.591608 0.519615 0.519615 
0.591608 0.714143 0.714143 0.591608 0.519615 0.519615 0.591608 0.714143 0.768115 
0.655744 0.591608 0.591608 0.655744 0.768115 0.768115 0.714143 0.714143 0.768115 

METADATA
INFORMATION 0

Polynomial 1 216 float
1 2 2 3 2 3 3 4 1 
1 1 1 1 1 1 1 1 2 
1 1 1 1 1 2 1 1 1 
1 1 2 1 1 1 1 1 2 
2 2 2 2 1 1 1 1 1 
2 1 1 1 1 1 2 1 1 
1 1 1 2 1 1 1 1 1 
2 1 1 1 1 1 2 2 2 
2 2 2 3 1 1 1 1 1 
2 1 1 1 1 1 2 1 1 
1 1 1 2 1 1 1 1 1 
2 1 1 1 1 1 2 2 2 
2 2 2 3 1 1 1 1 1 
2 1 1 1 1 1 2 1 1 
1 1 1 2 1 1 1 1 1 
2 1 1 1 1 1 2 2 2 
2 2 2 3 1 1 1 1 1 
2 1 1 1 1 1 2 1 1 
1 1 1 2 1 1 1 1 1 
2 1 1 1 1 1 2 2 2 
2 2 2 3 2 2 2 2 2 
2 2 2 2 3 2 2 2 2 
2 3 2 2 2 2 2 3 2 
2 2 2 2 3 3 3 3 3 

METADATA
INFORMATION 0

