# vtk DataFile Version 4.2
vtk output
ASCII
DATASET UNSTRUCTURED_GRID
POINTS 216 float
0 0 0 1 0 0 0 1 0 
1 1 0 0 0 1 1 0 1 
0 1 1 1 1 1 0.2 0 0 
0.4 0 0 0.6 0 0 0.8 0 0 
0 0.2 0 0.2 0.2 0 0.4 0.2 0 
0.6 0.2 0 0.8 0.2 0 1 0.2 0 
0 0.4 0 0.2 0.4 0 0.4 0.4 0 
0.6 0.4 0 0.8 0.4 0 1 0.4 0 
0 0.6 0 0.2 0.6 0 0.4 0.6 0 
0.6 0.6 0 0.8 0.6 0 1 0.6 0 
0 0.8 0 0.2 0.8 0 0.4 0.8 0 
0.6 0.8 0 0.8 0.8 0 1 0.8 0 
0.2 1 0 0.4 1 0 0.6 1 0 
0.8 1 0 0 0 0.2 0.2 0 0.2 
0.4 0 0.2 0.6 0 0.2 0.8 0 0.2 
1 0 0.2 0 0.2 0.2 0.2 0.2 0.2 
0.4 0.2 0.2 0.6 0.2 0.2 0.8 0.2 0.2 
1 0.2 0.2 0 0.4 0.2 0.2 0.4 0.2 
0.4 0.4 0.2 0.6 0.4 0.2 0.8 0.4 0.2 
1 0.4 0.2 0 0.6 0.2 0.2 0.6 0.2 
0.4 0.6 0.2 0.6 0.6 0.2 0.8 0.6 0.2 
1 0.6 0.2 0 0.8 0.2 0.2 0.8 0.2 
0.4 0.8 0.2 0.6 0.8 0.2 0.8 0.8 0.2 
1 0.8 0.2 0 1 0.2 0.2 1 0.2 
0.4 1 0.2 0.6 1 0.2 0.8 1 0.2 
1 1 0.2 0 0 0.4 0.2 0 0.4 
0.4 0 0.4 0.6 0 0.4 0.8 0 0.4 
1 0 0.4 0 0.2 0.4 0.2 0.2 0.4 
0.4 0.2 0.4 0.6 0.2 0.4 0.8 0.2 0.4 
1 0.2 0.4 0 0.4 0.4 0.2 0.4 0.4 
0.4 0.4 0.4 0.6 0.4 0.4 0.8 0.4 0.4 
1 0.4 0.4 0 0.6 0.4 0.2 0.6 0.4 
0.4 0.6 0.4 0.6 0.6 0.4 0.8 0.6 0.4 
1 0.6 0.4 0 0.8 0.4 0.2 0.8 0.4 
0.4 0.8 0.4 0.6 0.8 0.4 0.8 0.8 0.4 
1 0.8 0.4 0 1 0.4 0.2 1 0.4 
0.4 1 0.4 0.6 1 0.4 0.8 1 0.4 
1 1 0.4 0 0 0.6 0.2 0 0.6 
0.4 0 0.6 0.6 0 0.6 0.8 0 0.6 
1 0 0.6 0 0.2 0.6 0.2 0.2 0.6 
0.4 0.2 0.6 0.6 0.2 0.6 0.8 0.2 0.6 
1 0.2 0.6 0 0.4 0.6 0.2 0.4 0.6 
0.4 0.4 0.6 0.6 0.4 0.6 0.8 0.4 0.6 
1 0.4 0.6 0 0.6 0.6 0.2 0.6 0.6 
0.4 0.6 0.6 0.6 0.6 0.6 0.8 0.6 0.6 
1 0.6 0.6 0 0.8 0.6 0.2 0.8 0.6 
0.4 0.8 0.6 0.6 0.8 0.6 0.8 0.8 0.6 
1 0.8 0.6 0 1 0.6 0.2 1 0.6 
0.4 1 0.6 0.6 1 0.6 0.8 1 0.6 
1 1 0.6 0 0 0.8 0.2 0 0.8 
0.4 0 0.8 0.6 0 0.8 0.8 0 0.8 
1 0 0.8 0 0.2 0.8 0.2 0.2 0.8 
0.4 0.2 0.8 0.6 0.2 0.8 0.8 0.2 0.8 
1 0.2 0.8 0 0.4 0.8 0.2 0.4 0.8 
0.4 0.4 0.8 0.6 0.4 0.8 0.8 0.4 0.8 
1 0.4 0.8 0 0.6 0.8 0.2 0.6 0.8 
0.4 0.6 0.8 0.6 0.6 0.8 0.8 0.6 0.8 
1 0.6 0.8 0 0.8 0.8 0.2 0.8 0.8 
0.4 0.8 0.8 0.6 0.8 0.8 0.8 0.8 0.8 
1 0.8 0.8 0 1 0.8 0.2 1 0.8 
0.4 1 0.8 0.6 1 0.8 0.8 1 0.8 
1 1 0.8 0.2 0 1 0.4 0 1 
0.6 0 1 0.8 0 1 0 0.2 1 
0.2 0.2 1 0.4 0.2 1 0.6 0.2 1 
0.8 0.2 1 1 0.2 1 0 0.4 1 
0.2 0.4 1 0.4 0.4 1 0.6 0.4 1 
0.8 0.4 1 1 0.4 1 0 0.6 1 
0.2 0.6 1 0.4 0.6 1 0.6 0.6 1 
0.8 0.6 1 1 0.6 1 0 0.8 1 
0.2 0.8 1 0.4 0.8 1 0.6 0.8 1 
0.8 0.8 1 1 0.8 1 0.2 1 1 
0.4 1 1 0.6 1 1 0.8 1 1 

METADATA
INFORMATION 2
NAME L2_NORM_RANGE LOCATION vtkDataArray
DATA 2 0 1.73205 
NAME L2_NORM_FINITE_RANGE LOCATION vtkDataArray
DATA 2 0 1.73205 

CELLS 1 127
126 0 1 2 4 5 6 8 9 10 11 16 21 26 31 30 24 18 12 184 185 186 187 192 197 202 207 206 200 194 188 40 76 112 148 45 81 117 153 70 106 142 178 13 14 15 19 20 25 189 190 191 195 196 201 41 42 43 44 77 78 79 80 113 114 115 116 149 150 151 152 50 55 60 65 86 91 96 101 122 127 132 137 158 163 168 173 46 52 58 64 82 88 94 100 118 124 130 136 154 160 166 172 47 48 49 53 54 59 83 84 85 89 90 95 119 120 121 125 126 131 155 156 157 161 162 167 

CELL_TYPES 1
73

POINT_DATA 216
FIELD FieldData 2
DistanceToCenter 1 216 float
0.866025 0.866025 0.866025 0.866025 0.866025 0.866025 0.866025 0.866025 0.768115 
0.714143 0.714143 0.768115 0.768115 0.655744 0.591608 0.591608 0.655744 0.768115 
0.714143 0.591608 0.519615 0.519615 0.591608 0.714143 0.714143 0.591608 0.519615 
0.519615 0.591608 0.714143 0.768115 0.655744 0.591608 0.591608 0.655744 0.768115 
0.768115 0.714143 0.714143 0.768115 0.768115 0.655744 0.591608 0.591608 0.655744 
0.768115 0.655744 0.519615 0.43589 0.43589 0.519615 0.655744 0.591608 0.43589 
0.331662 0.331662 0.43589 0.591608 0.591608 0.43589 0.331662 0.331662 0.43589 
0.591608 0.655744 0.519615 0.43589 0.43589 0.519615 0.655744 0.768115 0.655744 
0.591608 0.591608 0.655744 0.768115 0.714143 0.591608 0.519615 0.519615 0.591608 
0.714143 0.591608 0.43589 0.331662 0.331662 0.43589 0.591608 0.519615 0.331662 
0.173205 0.173205 0.331662 0.519615 0.519615 0.331662 0.173205 0.173205 0.331663 
0.519615 0.591608 0.43589 0.331662 0.331663 0.43589 0.591608 0.714143 0.591608 
0.519615 0.519615 0.591608 0.714143 0.714143 0.591608 0.519615 0.519615 0.591608 
0.714143 0.591608 0.43589 0.331662 0.331662 0.43589 0.591608 0.519615 0.331662 
0.173205 0.173205 0.331663 0.519615 0.519615 0.331662 0.173205 0.173205 0.331663 
0.519615 0.591608 0.43589 0.331663 0.331663 0.43589 0.591608 0.714143 0.591608 
0.519615 0.519615 0.591608 0.714143 0.768115 0.655744 0.591608 0.591608 0.655744 
0.768115 0.655744 0.519615 0.43589 0.43589 0.519615 0.655744 0.591608 0.43589 
0.331662 0.331663 0.43589 0.591608 0.591608 0.43589 0.331663 0.331663 0.43589 
0.591608 0.655744 0.519615 0.43589 0.43589 0.519615 0.655744 0.768115 0.655744 
0.591608 0.591608 0.655744 0.768115 0.768115 0.714143 0.714143 0.768115 0.768115 
0.655744 0.591608 0.591608 0.655744 0.768115 0.714143 0.591608 0.519615 0.519615 
0.591608 0.714143 0.714143 0.591608 0.519615 0.519615 0.591608 0.714143 0.768115 
0.655744 0.591608 0.591608 0.655744 0.768115 0.768115 0.714143 0.714143 0.768115 

METADATA
INFORMATION 0

Polynomial 1 216 float
1 2 2 3 2 3 3 4 1 
1 1 1 1 1 1 1 1 2 
1 1 1 1 1 2 1 1 1 
1 1 2 1 1 1 1 1 2 
2 2 2 2 1 1 1 1 1 
2 1 1 1 1 1 2 1 1 
1 1 1 2 1 1 1 1 1 
2 1 1 1 1 1 2 2 2 
2 2 2 3 1 1 1 1 1 
2 1 1 1 1 1 2 1 1 
1 1 1 2 1 1 1 1 1 
2 1 1 1 1 1 2 2 2 
2 2 2 3 1 1 1 1 1 
2 1 1 1 1 1 2 1 1 
1 1 1 2 1 1 1 1 1 
2 1 1 1 1 1 2 2 2 
2 2 2 3 1 1 1 1 1 
2 1 1 1 1 1 2 1 1 
1 1 1 2 1 1 1 1 1 
2 1 1 1 1 1 2 2 2 
2 2 2 3 2 2 2 2 2 
2 2 2 2 3 2 2 2 2 
2 3 2 2 2 2 2 3 2 
2 2 2 2 3 3 3 3 3 

METADATA
INFORMATION 0

