<VTKFile type="UnstructuredGrid" version="1.0" byte_order="LittleEndian" header_type="UInt64">
  <UnstructuredGrid>
    <Piece NumberOfPoints="1000" NumberOfCells="27">
      <PointData>
        <DataArray type="Float64" Name="DistanceToCenter" format="ascii" RangeMin="0.2886751345948126" RangeMax="2.598076211353316">
          2.598076211353316 2.179449471770337 2.179449471770337 2.598076211353316 2.179449471770337 1.6583123951777
          1.6583123951777 2.179449471770337 2.179449471770337 1.6583123951777 1.6583123951777 2.179449471770337
          2.598076211353316 2.179449471770337 2.179449471770337 2.598076211353316 2.179449471770337 1.6583123951777
          1.6583123951777 2.179449471770337 1.6583123951777 0.8660254037844386 0.8660254037844386 1.6583123951777
          1.6583123951777 0.8660254037844386 0.8660254037844386 1.6583123951777 2.179449471770337 1.6583123951777
          1.6583123951777 2.179449471770337 2.179449471770337 1.6583123951777 1.6583123951777 2.179449471770337
          1.6583123951777 0.8660254037844386 0.8660254037844386 1.6583123951777 1.6583123951777 0.8660254037844386
          0.8660254037844386 1.6583123951777 2.179449471770337 1.6583123951777 1.6583123951777 2.179449471770337
          2.598076211353316 2.179449471770337 2.179449471770337 2.598076211353316 2.179449471770337 1.6583123951777
          1.6583123951777 2.179449471770337 2.179449471770337 1.6583123951777 1.6583123951777 2.179449471770337
          2.598076211353316 2.179449471770337 2.179449471770337 2.598076211353316 2.4209731743889917 2.279132388529557
          2.4209731743889917 2.229848026709942 2.074983266331455 1.9649710204252662 2.279132388529557 2.074983266331455
          1.9075871903765995 1.7873008824606014 1.9649710204252662 1.7873008824606014 2.4209731743889917 2.229848026709942
          2.0749832663314556 1.9649710204252662 2.229848026709942 2.0207259421636903 1.848422751068236 1.7240134054647667
          2.0749832663314556 1.848422751068236 1.6583123951777001 1.51840559652405 1.9649710204252662 1.7240134054647667
          1.51840559652405 1.3642254619787417 2.279132388529557 2.0749832663314556 1.9075871903765995 1.7873008824606014
          2.0749832663314556 1.848422751068236 1.6583123951777 1.51840559652405 1.9075871903765995 1.6583123951777
          1.4433756729740645 1.2801909579781015 1.7873008824606014 1.51840559652405 1.2801909579781015 1.0929064207170003
          1.9649710204252662 1.7873008824606014 1.9649710204252662 1.7240134054647667 1.51840559652405 1.3642254619787417
          1.7873008824606014 1.51840559652405 1.2801909579781015 1.0929064207170003 1.3642254619787417 1.0929064207170003
          2.1278575558006176 2.1278575558006176 1.9075871903765993 1.9075871903765995 1.9649710204252662 1.7240134054647667
          1.7240134054647667 1.7873008824606014 1.5898986690282426 1.5898986690282426 1.9075871903765993 1.9075871903765995
          1.9649710204252662 1.6583123951776997 1.6583123951777 1.7240134054647667 1.443375672974064 1.4433756729740645
          1.51840559652405 1.2801909579781012 1.2801909579781015 1.3642254619787417 1.7240134054647667 1.7240134054647667
          1.7873008824606014 1.443375672974064 1.4433756729740645 1.51840559652405 1.190238071423808 1.1902380714238083
          1.2801909579781015 0.9860132971832692 0.9860132971832694 1.0929064207170003 1.5898986690282426 1.5898986690282426
          1.2801909579781012 1.2801909579781015 1.3642254619787417 0.9860132971832692 0.9860132971832694 1.0929064207170003
          0.7264831572567788 0.7264831572567788 2.279132388529557 2.4209731743889917 2.074983266331455 2.2298480267099423
          2.4209731743889917 1.9075871903765995 2.0749832663314556 2.279132388529557 1.7873008824606014 1.9649710204252662
          2.074983266331455 2.2298480267099423 2.4209731743889917 1.848422751068236 2.0207259421636903 2.229848026709942
          1.6583123951776997 1.8484227510682365 2.0749832663314556 1.5184055965240497 1.7240134054647671 1.9649710204252662
          1.9075871903765995 2.0749832663314556 2.279132388529557 1.6583123951776997 1.8484227510682365 2.0749832663314556
          1.4433756729740643 1.6583123951777001 1.9075871903765995 1.2801909579781015 1.51840559652405 1.7873008824606014
          1.7873008824606014 1.9649710204252662 1.5184055965240497 1.7240134054647671 1.9649710204252662 1.2801909579781015
          1.51840559652405 1.7873008824606014 1.0929064207170003 1.364225461978742 2.1278575558006176 1.9075871903765995
          1.7240134054647667 1.5898986690282426 2.1278575558006176 1.9075871903765995 1.7240134054647667 1.5898986690282426
          1.9649710204252662 1.7873008824606014 1.9075871903765993 1.6583123951777 1.4433756729740643 1.2801909579781012
          1.9075871903765995 1.6583123951777 1.4433756729740645 1.2801909579781015 1.9649710204252662 1.7240134054647667
          1.51840559652405 1.3642254619787417 1.7240134054647667 1.4433756729740645 1.1902380714238083 0.9860132971832692
          1.7240134054647667 1.4433756729740645 1.1902380714238083 0.9860132971832694 1.7873008824606014 1.51840559652405
          1.2801909579781015 1.0929064207170003 1.5898986690282426 1.2801909579781015 0.9860132971832694 0.7264831572567788
          1.5898986690282426 1.2801909579781015 0.9860132971832694 0.7264831572567788 1.3642254619787417 1.0929064207170003
          1.5184055965240497 1.5184055965240497 1.5898986690282426 1.5184055965240497 1.5184055965240497 1.5898986690282426
          1.5898986690282426 1.5898986690282426 1.190238071423808 1.190238071423808 1.2801909579781012 1.190238071423808
          1.1902380714238083 1.2801909579781015 1.2801909579781012 1.2801909579781015 1.3642254619787417 0.8660254037844385
          0.8660254037844385 0.9860132971832692 0.8660254037844385 0.8660254037844386 0.9860132971832694 0.9860132971832692
          0.9860132971832694 1.0929064207170003 0.5527707983925666 0.5527707983925666 0.7264831572567788 0.5527707983925666
          0.5527707983925666 0.7264831572567788 0.7264831572567788 0.7264831572567788 1.7240134054647667 1.9075871903765995
          2.1278575558006176 1.7240134054647667 1.9075871903765995 2.1278575558006176 1.7873008824606014 1.9649710204252662
          1.4433756729740643 1.6583123951777 1.9075871903765993 1.4433756729740643 1.6583123951777001 1.9075871903765995
          1.5184055965240497 1.7240134054647671 1.9649710204252662 1.1902380714238083 1.4433756729740645 1.7240134054647667
          1.1902380714238083 1.4433756729740645 1.7240134054647667 1.2801909579781015 1.51840559652405 1.7873008824606014
          0.9860132971832694 1.2801909579781017 1.5898986690282426 0.9860132971832694 1.2801909579781017 1.5898986690282426
          1.0929064207170003 1.364225461978742 2.279132388529557 2.0749832663314556 1.9075871903765995 1.7873008824606014
          2.4209731743889917 2.2298480267099423 2.0749832663314556 1.9649710204252662 2.4209731743889917 2.279132388529557
          2.074983266331455 1.8484227510682363 1.6583123951777 1.5184055965240497 2.2298480267099423 2.0207259421636903
          1.8484227510682365 1.7240134054647671 2.4209731743889917 2.229848026709942 2.0749832663314556 1.9649710204252662
          1.9075871903765995 1.6583123951777001 1.4433756729740645 1.2801909579781015 2.0749832663314556 1.8484227510682365
          1.6583123951777001 1.51840559652405 2.279132388529557 2.0749832663314556 1.9075871903765995 1.7873008824606014
          1.7873008824606014 1.51840559652405 1.2801909579781015 1.0929064207170003 1.9649710204252662 1.7240134054647671
          1.51840559652405 1.364225461978742 1.9649710204252662 1.7873008824606014 1.7240134054647667 1.7240134054647667
          1.7873008824606014 1.9075871903765995 1.9075871903765995 1.9649710204252662 2.1278575558006176 2.1278575558006176
          1.4433756729740643 1.4433756729740643 1.5184055965240497 1.6583123951777 1.6583123951777001 1.7240134054647671
          1.9075871903765993 1.9075871903765995 1.9649710204252662 1.1902380714238083 1.1902380714238083 1.2801909579781015
          1.4433756729740645 1.4433756729740645 1.51840559652405 1.7240134054647667 1.7240134054647667 1.7873008824606014
          0.9860132971832694 0.9860132971832694 1.0929064207170003 1.2801909579781017 1.2801909579781017 1.364225461978742
          1.5898986690282426 1.5898986690282426 1.9075871903765995 2.0749832663314556 2.279132388529557 2.0749832663314556
          2.2298480267099423 2.4209731743889917 2.279132388529557 2.4209731743889917 1.6583123951777 1.8484227510682363
          2.074983266331455 1.8484227510682363 2.0207259421636907 2.2298480267099423 2.074983266331455 2.2298480267099423
          2.4209731743889917 1.4433756729740645 1.6583123951777001 1.9075871903765995 1.6583123951777001 1.8484227510682367
          2.0749832663314556 1.9075871903765995 2.0749832663314556 2.279132388529557 1.2801909579781015 1.51840559652405
          1.7873008824606014 1.51840559652405 1.7240134054647671 1.9649710204252662 1.7873008824606014 1.9649710204252662
          2.1278575558006176 1.9075871903765995 1.7240134054647667 1.5898986690282426 1.9075871903765995 1.6583123951777
          1.4433756729740645 1.2801909579781015 1.7240134054647667 1.4433756729740645 1.1902380714238083 0.9860132971832694
          1.5898986690282426 1.2801909579781015 0.9860132971832694 0.7264831572567788 2.1278575558006176 1.9075871903765995
          1.7240134054647667 1.5898986690282426 1.9075871903765995 1.6583123951777 1.4433756729740645 1.2801909579781015
          1.7240134054647667 1.4433756729740645 1.1902380714238083 0.9860132971832694 1.5898986690282426 1.2801909579781015
          0.9860132971832694 0.7264831572567788 1.9649710204252662 1.7873008824606014 1.9649710204252662 1.7240134054647667
          1.51840559652405 1.3642254619787417 1.7873008824606014 1.51840559652405 1.2801909579781015 1.0929064207170003
          1.3642254619787417 1.0929064207170003 1.5184055965240497 1.5184055965240497 1.5898986690282426 1.190238071423808
          1.1902380714238083 1.2801909579781015 0.8660254037844385 0.8660254037844386 0.9860132971832694 0.5527707983925666
          0.5527707983925666 0.7264831572567788 1.5184055965240497 1.5184055965240497 1.5898986690282426 1.190238071423808
          1.1902380714238083 1.2801909579781015 0.8660254037844385 0.8660254037844386 0.9860132971832694 0.5527707983925666
          0.5527707983925666 0.7264831572567788 1.5898986690282426 1.5898986690282426 1.2801909579781012 1.2801909579781015
          1.3642254619787417 0.9860132971832692 0.9860132971832694 1.0929064207170003 0.7264831572567788 0.7264831572567788
          1.7240134054647667 1.9075871903765995 2.1278575558006176 1.4433756729740643 1.6583123951777001 1.9075871903765995
          1.1902380714238083 1.4433756729740645 1.7240134054647667 0.9860132971832694 1.2801909579781017 1.5898986690282426
          1.7240134054647667 1.9075871903765995 2.1278575558006176 1.4433756729740643 1.6583123951777001 1.9075871903765995
          1.1902380714238083 1.4433756729740645 1.7240134054647667 0.9860132971832694 1.2801909579781017 1.5898986690282426
          1.7873008824606014 1.9649710204252662 1.5184055965240497 1.7240134054647671 1.9649710204252662 1.2801909579781015
          1.51840559652405 1.7873008824606014 1.0929064207170003 1.364225461978742 1.5184055965240497 1.1902380714238083
          0.8660254037844386 0.5527707983925666 1.5184055965240497 1.1902380714238083 0.8660254037844386 0.5527707983925666
          1.5898986690282426 1.2801909579781015 0.9860132971832694 0.7264831572567788 1.5184055965240497 1.1902380714238083
          0.8660254037844386 0.5527707983925666 1.5184055965240497 1.1902380714238083 0.8660254037844386 0.5527707983925666
          1.5898986690282426 1.2801909579781015 0.9860132971832694 0.7264831572567788 1.5898986690282426 1.2801909579781015
          0.9860132971832694 0.7264831572567788 1.5898986690282426 1.2801909579781015 0.9860132971832694 0.7264831572567788
          1.3642254619787417 1.0929064207170003 0.2886751345948126 0.2886751345948126 0.5527707983925666 0.2886751345948126
          0.2886751345948126 0.5527707983925666 0.5527707983925666 0.5527707983925666 0.7264831572567788 0.2886751345948126
          0.2886751345948126 0.5527707983925666 0.2886751345948126 0.2886751345948126 0.5527707983925666 0.5527707983925666
          0.5527707983925666 0.7264831572567788 0.5527707983925666 0.5527707983925666 0.7264831572567788 0.5527707983925666
          0.5527707983925666 0.7264831572567788 0.7264831572567788 0.7264831572567788 0.8660254037844386 1.1902380714238086
          1.5184055965240497 0.8660254037844386 1.1902380714238086 1.5184055965240497 0.9860132971832694 1.2801909579781017
          1.5898986690282426 0.8660254037844386 1.1902380714238086 1.5184055965240497 0.8660254037844386 1.1902380714238086
          1.5184055965240497 0.9860132971832694 1.2801909579781017 1.5898986690282426 0.9860132971832694 1.2801909579781017
          1.5898986690282426 0.9860132971832694 1.2801909579781017 1.5898986690282426 1.0929064207170003 1.364225461978742
          1.7240134054647667 1.4433756729740645 1.1902380714238086 0.9860132971832694 1.9075871903765995 1.6583123951777001
          1.4433756729740645 1.2801909579781017 2.1278575558006176 1.9075871903765995 1.7240134054647667 1.5898986690282426
          1.7240134054647667 1.4433756729740645 1.1902380714238086 0.9860132971832694 1.9075871903765995 1.6583123951777001
          1.4433756729740645 1.2801909579781017 2.1278575558006176 1.9075871903765995 1.7240134054647667 1.5898986690282426
          1.7873008824606014 1.51840559652405 1.2801909579781015 1.0929064207170003 1.9649710204252662 1.7240134054647671
          1.51840559652405 1.364225461978742 1.9649710204252662 1.7873008824606014 0.8660254037844386 0.8660254037844386
          0.9860132971832694 1.1902380714238086 1.1902380714238086 1.2801909579781017 1.5184055965240497 1.5184055965240497
          1.5898986690282426 0.8660254037844386 0.8660254037844386 0.9860132971832694 1.1902380714238086 1.1902380714238086
          1.2801909579781017 1.5184055965240497 1.5184055965240497 1.5898986690282426 0.9860132971832694 0.9860132971832694
          1.0929064207170003 1.2801909579781017 1.2801909579781017 1.364225461978742 1.5898986690282426 1.5898986690282426
          1.1902380714238086 1.4433756729740645 1.7240134054647667 1.4433756729740645 1.6583123951777003 1.9075871903765995
          1.7240134054647667 1.9075871903765995 2.1278575558006176 1.1902380714238086 1.4433756729740645 1.7240134054647667
          1.4433756729740645 1.6583123951777003 1.9075871903765995 1.7240134054647667 1.9075871903765995 2.1278575558006176
          1.2801909579781015 1.51840559652405 1.7873008824606014 1.51840559652405 1.7240134054647671 1.9649710204252662
          1.7873008824606014 1.9649710204252662 2.279132388529557 2.0749832663314556 1.9075871903765995 1.7873008824606014
          2.0749832663314556 1.8484227510682363 1.6583123951777001 1.51840559652405 1.9075871903765995 1.6583123951777001
          1.4433756729740645 1.2801909579781015 1.7873008824606014 1.51840559652405 1.2801909579781015 1.0929064207170003
          2.4209731743889917 2.2298480267099423 2.0749832663314556 1.9649710204252662 2.2298480267099423 2.0207259421636903
          1.8484227510682365 1.7240134054647671 2.0749832663314556 1.8484227510682365 1.6583123951777001 1.51840559652405
          1.9649710204252662 1.7240134054647671 1.51840559652405 1.364225461978742 2.4209731743889917 2.279132388529557
          2.4209731743889917 2.229848026709942 2.074983266331455 1.9649710204252662 2.279132388529557 2.074983266331455
          1.9075871903765995 1.7873008824606014 1.9649710204252662 1.7873008824606014 1.7240134054647667 1.7240134054647667
          1.7873008824606014 1.4433756729740643 1.4433756729740645 1.51840559652405 1.1902380714238083 1.1902380714238086
          1.2801909579781015 0.9860132971832694 0.9860132971832694 1.0929064207170003 1.9075871903765995 1.9075871903765995
          1.9649710204252662 1.6583123951777 1.6583123951777001 1.7240134054647671 1.4433756729740645 1.4433756729740645
          1.51840559652405 1.2801909579781017 1.2801909579781017 1.364225461978742 2.1278575558006176 2.1278575558006176
          1.9075871903765993 1.9075871903765995 1.9649710204252662 1.7240134054647667 1.7240134054647667 1.7873008824606014
          1.5898986690282426 1.5898986690282426 1.9075871903765995 2.0749832663314556 2.279132388529557 1.6583123951777
          1.8484227510682365 2.0749832663314556 1.4433756729740645 1.6583123951777001 1.9075871903765995 1.2801909579781015
          1.51840559652405 1.7873008824606014 2.0749832663314556 2.2298480267099423 2.4209731743889917 1.8484227510682363
          2.0207259421636907 2.2298480267099423 1.6583123951777001 1.8484227510682365 2.0749832663314556 1.51840559652405
          1.7240134054647671 1.9649710204252662 2.279132388529557 2.4209731743889917 2.074983266331455 2.2298480267099423
          2.4209731743889917 1.9075871903765995 2.0749832663314556 2.279132388529557 1.7873008824606014 1.9649710204252662
          1.7240134054647667 1.4433756729740645 1.1902380714238086 0.9860132971832694 1.7240134054647667 1.4433756729740645
          1.1902380714238086 0.9860132971832694 1.7873008824606014 1.51840559652405 1.2801909579781015 1.0929064207170003
          1.9075871903765995 1.6583123951777001 1.4433756729740645 1.2801909579781017 1.9075871903765995 1.6583123951777001
          1.4433756729740645 1.2801909579781017 1.9649710204252662 1.7240134054647671 1.51840559652405 1.364225461978742
          2.1278575558006176 1.9075871903765995 1.7240134054647667 1.5898986690282426 2.1278575558006176 1.9075871903765995
          1.7240134054647667 1.5898986690282426 1.9649710204252662 1.7873008824606014 0.8660254037844387 0.8660254037844387
          0.9860132971832694 0.8660254037844387 0.8660254037844387 0.9860132971832694 0.9860132971832694 0.9860132971832694
          1.0929064207170003 1.1902380714238086 1.1902380714238086 1.2801909579781017 1.1902380714238086 1.1902380714238086
          1.2801909579781017 1.2801909579781017 1.2801909579781017 1.364225461978742 1.5184055965240497 1.5184055965240497
          1.5898986690282426 1.5184055965240497 1.5184055965240497 1.5898986690282426 1.5898986690282426 1.5898986690282426
          1.1902380714238086 1.4433756729740645 1.7240134054647667 1.1902380714238086 1.4433756729740645 1.7240134054647667
          1.2801909579781015 1.51840559652405 1.7873008824606014 1.4433756729740645 1.6583123951777003 1.9075871903765995
          1.4433756729740645 1.6583123951777003 1.9075871903765995 1.51840559652405 1.7240134054647671 1.9649710204252662
          1.7240134054647667 1.9075871903765995 2.1278575558006176 1.7240134054647667 1.9075871903765995 2.1278575558006176
          1.7873008824606014 1.9649710204252662 1.9075871903765995 1.6583123951777001 1.4433756729740645 1.2801909579781015
          2.0749832663314556 1.8484227510682365 1.6583123951777001 1.51840559652405 2.279132388529557 2.0749832663314556
          1.9075871903765995 1.7873008824606014 2.0749832663314556 1.8484227510682365 1.6583123951777001 1.51840559652405
          2.2298480267099423 2.0207259421636907 1.8484227510682365 1.7240134054647671 2.4209731743889917 2.2298480267099423
          2.0749832663314556 1.9649710204252662 2.279132388529557 2.0749832663314556 1.9075871903765995 1.7873008824606014
          2.4209731743889917 2.2298480267099423 2.0749832663314556 1.9649710204252662 2.4209731743889917 2.279132388529557
          1.1902380714238086 1.1902380714238086 1.2801909579781015 1.4433756729740645 1.4433756729740645 1.51840559652405
          1.7240134054647667 1.7240134054647667 1.7873008824606014 1.4433756729740645 1.4433756729740645 1.51840559652405
          1.6583123951777003 1.6583123951777003 1.7240134054647671 1.9075871903765995 1.9075871903765995 1.9649710204252662
          1.7240134054647667 1.7240134054647667 1.7873008824606014 1.9075871903765995 1.9075871903765995 1.9649710204252662
          2.1278575558006176 2.1278575558006176 1.4433756729740645 1.6583123951777001 1.9075871903765995 1.6583123951777001
          1.8484227510682367 2.0749832663314556 1.9075871903765995 2.0749832663314556 2.279132388529557 1.6583123951777001
          1.8484227510682365 2.0749832663314556 1.8484227510682365 2.0207259421636907 2.2298480267099423 2.0749832663314556
          2.2298480267099423 2.4209731743889917 1.9075871903765995 2.0749832663314556 2.279132388529557 2.0749832663314556
          2.2298480267099423 2.4209731743889917 2.279132388529557 2.4209731743889917
        </DataArray>
        <DataArray type="Float64" Name="Polynomial" format="ascii" RangeMin="1" RangeMax="10">
          1 2 3 4 2 3
          4 5 3 4 5 6
          4 5 6 7 2 3
          4 5 3 4 5 6
          4 5 6 7 5 6
          7 8 3 4 5 6
          4 5 6 7 5 6
          7 8 6 7 8 9
          4 5 6 7 5 6
          7 8 6 7 8 9
          7 8 9 10 1 1
          1 1 1 2 1 1
          1 2 2 2 1 1
          1 2 1 1 1 2
          1 1 1 2 2 2
          2 3 1 1 1 2
          1 1 1 2 1 1
          1 2 2 2 2 3
          2 2 2 2 2 3
          2 2 2 3 3 3
          2 2 2 2 3 2
          2 3 3 3 2 2
          3 2 2 3 2 2
          3 3 3 4 2 2
          3 2 2 3 2 2
          3 3 3 4 3 3
          3 3 4 3 3 4
          4 4 3 3 3 3
          4 3 3 4 4 4
          3 3 4 3 3 4
          3 3 4 4 4 5
          3 3 4 3 3 4
          3 3 4 4 4 5
          4 4 4 4 5 4
          4 5 5 5 2 2
          2 3 2 2 2 3
          3 3 2 2 2 3
          2 2 2 3 3 3
          3 4 2 2 2 3
          2 2 2 3 3 3
          3 4 3 3 3 4
          3 3 3 4 4 4
          3 3 4 3 3 4
          4 4 3 3 4 3
          3 4 4 4 5 3
          3 4 3 3 4 4
          4 5 4 4 5 4
          4 5 5 5 4 4
          5 4 4 5 5 5
          4 4 5 4 4 5
          5 5 6 4 4 5
          4 4 5 5 5 6
          5 5 6 5 5 6
          6 6 3 3 3 4
          3 3 3 4 4 4
          3 3 3 4 3 3
          3 4 4 4 4 5
          3 3 3 4 3 3
          3 4 4 4 4 5
          4 4 4 5 4 4
          4 5 5 5 4 4
          5 4 4 5 5 5
          4 4 5 4 4 5
          5 5 6 4 4 5
          4 4 5 5 5 6
          5 5 6 5 5 6
          6 6 5 5 6 5
          5 6 6 6 5 5
          6 5 5 6 6 6
          7 5 5 6 5 5
          6 6 6 7 6 6
          7 6 6 7 7 7
          2 2 2 3 2 2
          2 3 2 2 2 3
          3 3 3 4 2 2
          2 3 2 2 2 3
          2 2 2 3 3 3
          3 4 3 3 3 3
          3 4 3 3 3 4
          4 4 3 3 4 3
          3 4 3 3 4 4
          4 5 3 3 4 3
          3 4 3 3 4 4
          4 5 4 4 4 4
          5 4 4 5 5 5
          4 4 5 4 4 5
          4 4 5 5 5 6
          4 4 5 4 4 5
          4 4 5 5 5 6
          5 5 5 5 6 5
          5 6 6 6 3 3
          3 4 3 3 3 4
          4 4 4 5 3 3
          3 4 3 3 3 4
          4 4 4 5 4 4
          4 5 4 4 4 5
          5 5 4 4 5 4
          4 5 5 5 6 4
          4 5 4 4 5 5
          5 6 5 5 6 5
          5 6 6 6 5 5
          6 5 5 6 6 6
          7 5 5 6 5 5
          6 6 6 7 6 6
          7 6 6 7 7 7
          4 4 4 5 4 4
          4 5 5 5 5 6
          4 4 4 5 4 4
          4 5 5 5 5 6
          5 5 5 6 5 5
          5 6 6 6 5 5
          6 5 5 6 6 6
          7 5 5 6 5 5
          6 6 6 7 6 6
          7 6 6 7 7 7
          6 6 7 6 6 7
          7 7 8 6 6 7
          6 6 7 7 7 8
          7 7 8 7 7 8
          8 8 3 3 3 4
          3 3 3 4 3 3
          3 4 4 4 4 5
          3 3 3 4 3 3
          3 4 3 3 3 4
          4 4 4 5 4 4
          4 4 4 5 4 4
          4 5 5 5 4 4
          5 4 4 5 4 4
          5 5 5 6 4 4
          5 4 4 5 4 4
          5 5 5 6 5 5
          5 5 6 5 5 6
          6 6 5 5 6 5
          5 6 5 5 6 6
          6 7 5 5 6 5
          5 6 5 5 6 6
          6 7 6 6 6 6
          7 6 6 7 7 7
          4 4 4 5 4 4
          4 5 5 5 5 6
          4 4 4 5 4 4
          4 5 5 5 5 6
          5 5 5 6 5 5
          5 6 6 6 5 5
          6 5 5 6 6 6
          7 5 5 6 5 5
          6 6 6 7 6 6
          7 6 6 7 7 7
          6 6 7 6 6 7
          7 7 8 6 6 7
          6 6 7 7 7 8
          7 7 8 7 7 8
          8 8 5 5 5 6
          5 5 5 6 6 6
          6 7 5 5 5 6
          5 5 5 6 6 6
          6 7 6 6 6 7
          6 6 6 7 7 7
          6 6 7 6 6 7
          7 7 8 6 6 7
          6 6 7 7 7 8
          7 7 8 7 7 8
          8 8 7 7 8 7
          7 8 8 8 9 7
          7 8 7 7 8 8
          8 9 8 8 9 8
          8 9 9 9
        </DataArray>
      </PointData>
      <CellData>
      </CellData>
      <Points>
        <DataArray type="Float64" Name="Points" NumberOfComponents="3" format="ascii" RangeMin="0" RangeMax="5.196152422706632">
          0 0 0 1 0 0
          2 0 0 3 0 0
          0 1 0 1 1 0
          2 1 0 3 1 0
          0 2 0 1 2 0
          2 2 0 3 2 0
          0 3 0 1 3 0
          2 3 0 3 3 0
          0 0 1 1 0 1
          2 0 1 3 0 1
          0 1 1 1 1 1
          2 1 1 3 1 1
          0 2 1 1 2 1
          2 2 1 3 2 1
          0 3 1 1 3 1
          2 3 1 3 3 1
          0 0 2 1 0 2
          2 0 2 3 0 2
          0 1 2 1 1 2
          2 1 2 3 1 2
          0 2 2 1 2 2
          2 2 2 3 2 2
          0 3 2 1 3 2
          2 3 2 3 3 2
          0 0 3 1 0 3
          2 0 3 3 0 3
          0 1 3 1 1 3
          2 1 3 3 1 3
          0 2 3 1 2 3
          2 2 3 3 2 3
          0 3 3 1 3 3
          2 3 3 3 3 3
          0.3333333333333333 0 0 0.6666666666666666 0 0
          0 0.3333333333333333 0 0.3333333333333333 0.33333333333333337 0
          0.6666666666666666 0.3333333333333333 0 1 0.3333333333333333 0
          0 0.6666666666666666 0 0.3333333333333333 0.6666666666666667 0
          0.6666666666666666 0.6666666666666666 0 1 0.6666666666666666 0
          0.3333333333333333 1 0 0.6666666666666666 1 0
          0 0 0.3333333333333333 0.3333333333333333 0 0.33333333333333337
          0.6666666666666666 0 0.3333333333333333 1 0 0.3333333333333333
          0 0.3333333333333333 0.33333333333333337 0.3333333333333333 0.33333333333333337 0.33333333333333337
          0.6666666666666666 0.3333333333333333 0.33333333333333337 1 0.3333333333333333 0.33333333333333337
          0 0.6666666666666666 0.3333333333333333 0.3333333333333333 0.6666666666666667 0.33333333333333337
          0.6666666666666666 0.6666666666666666 0.3333333333333333 1 0.6666666666666666 0.3333333333333333
          0 1 0.3333333333333333 0.3333333333333333 1 0.33333333333333337
          0.6666666666666666 1 0.3333333333333333 1 1 0.3333333333333333
          0 0 0.6666666666666666 0.3333333333333333 0 0.6666666666666667
          0.6666666666666666 0 0.6666666666666666 1 0 0.6666666666666666
          0 0.3333333333333333 0.6666666666666667 0.3333333333333333 0.33333333333333337 0.6666666666666667
          0.6666666666666666 0.3333333333333333 0.6666666666666667 1 0.3333333333333333 0.6666666666666667
          0 0.6666666666666666 0.6666666666666666 0.3333333333333333 0.6666666666666667 0.6666666666666667
          0.6666666666666666 0.6666666666666666 0.6666666666666666 1 0.6666666666666666 0.6666666666666666
          0 1 0.6666666666666666 0.3333333333333333 1 0.6666666666666667
          0.6666666666666666 1 0.6666666666666666 1 1 0.6666666666666666
          0.3333333333333333 0 1 0.6666666666666666 0 1
          0 0.3333333333333333 1 0.3333333333333333 0.33333333333333337 1
          0.6666666666666666 0.3333333333333333 1 1 0.3333333333333333 1
          0 0.6666666666666666 1 0.3333333333333333 0.6666666666666667 1
          0.6666666666666666 0.6666666666666666 1 1 0.6666666666666666 1
          0.3333333333333333 1 1 0.6666666666666666 1 1
          1.3333333333333335 0 0 1.6666666666666665 0 0
          1.3333333333333335 0.33333333333333337 0 1.6666666666666665 0.3333333333333333 0
          2 0.3333333333333333 0 1.3333333333333335 0.6666666666666667 0
          1.6666666666666665 0.6666666666666666 0 2 0.6666666666666666 0
          1.3333333333333335 1 0 1.6666666666666665 1 0
          1.3333333333333335 0 0.33333333333333337 1.6666666666666665 0 0.3333333333333333
          2 0 0.3333333333333333 1.3333333333333335 0.33333333333333337 0.33333333333333337
          1.6666666666666665 0.3333333333333333 0.33333333333333337 2 0.3333333333333333 0.33333333333333337
          1.3333333333333335 0.6666666666666667 0.33333333333333337 1.6666666666666665 0.6666666666666666 0.3333333333333333
          2 0.6666666666666666 0.3333333333333333 1.3333333333333335 1 0.33333333333333337
          1.6666666666666665 1 0.3333333333333333 2 1 0.3333333333333333
          1.3333333333333335 0 0.6666666666666667 1.6666666666666665 0 0.6666666666666666
          2 0 0.6666666666666666 1.3333333333333335 0.33333333333333337 0.6666666666666667
          1.6666666666666665 0.3333333333333333 0.6666666666666667 2 0.3333333333333333 0.6666666666666667
          1.3333333333333335 0.6666666666666667 0.6666666666666667 1.6666666666666665 0.6666666666666666 0.6666666666666666
          2 0.6666666666666666 0.6666666666666666 1.3333333333333335 1 0.6666666666666667
          1.6666666666666665 1 0.6666666666666666 2 1 0.6666666666666666
          1.3333333333333335 0 1 1.6666666666666665 0 1
          1.3333333333333335 0.33333333333333337 1 1.6666666666666665 0.3333333333333333 1
          2 0.3333333333333333 1 1.3333333333333335 0.6666666666666667 1
          1.6666666666666665 0.6666666666666666 1 2 0.6666666666666666 1
          1.3333333333333335 1 1 1.6666666666666665 1 1
          2.3333333333333335 0 0 2.666666666666667 0 0
          2.3333333333333335 0.33333333333333337 0 2.666666666666667 0.3333333333333333 0
          3 0.3333333333333333 0 2.3333333333333335 0.6666666666666667 0
          2.666666666666667 0.6666666666666666 0 3 0.6666666666666666 0
          2.3333333333333335 1 0 2.666666666666667 1 0
          2.3333333333333335 0 0.33333333333333337 2.666666666666667 0 0.3333333333333333