# vtk DataFile Version 4.2
vtk output
ASCII
DATASET UNSTRUCTURED_GRID
POINTS 1000 double
0 0 0 1 0 0 2 0 0 
3 0 0 0 1 0 1 1 0 
2 1 0 3 1 0 0 2 0 
1 2 0 2 2 0 3 2 0 
0 3 0 1 3 0 2 3 0 
3 3 0 0 0 1 1 0 1 
2 0 1 3 0 1 0 1 1 
1 1 1 2 1 1 3 1 1 
0 2 1 1 2 1 2 2 1 
3 2 1 0 3 1 1 3 1 
2 3 1 3 3 1 0 0 2 
1 0 2 2 0 2 3 0 2 
0 1 2 1 1 2 2 1 2 
3 1 2 0 2 2 1 2 2 
2 2 2 3 2 2 0 3 2 
1 3 2 2 3 2 3 3 2 
0 0 3 1 0 3 2 0 3 
3 0 3 0 1 3 1 1 3 
2 1 3 3 1 3 0 2 3 
1 2 3 2 2 3 3 2 3 
0 3 3 1 3 3 2 3 3 
3 3 3 0.33333333333 0 0 0.66666666667 0 0 
0 0.33333333333 0 0.33333333333 0.33333333333 0 0.66666666667 0.33333333333 0 
1 0.33333333333 0 0 0.66666666667 0 0.33333333333 0.66666666667 0 
0.66666666667 0.66666666667 0 1 0.66666666667 0 0.33333333333 1 0 
0.66666666667 1 0 0 0 0.33333333333 0.33333333333 0 0.33333333333 
0.66666666667 0 0.33333333333 1 0 0.33333333333 0 0.33333333333 0.33333333333 
0.33333333333 0.33333333333 0.33333333333 0.66666666667 0.33333333333 0.33333333333 1 0.33333333333 0.33333333333 
0 0.66666666667 0.33333333333 0.33333333333 0.66666666667 0.33333333333 0.66666666667 0.66666666667 0.33333333333 
1 0.66666666667 0.33333333333 0 1 0.33333333333 0.33333333333 1 0.33333333333 
0.66666666667 1 0.33333333333 1 1 0.33333333333 0 0 0.66666666667 
0.33333333333 0 0.66666666667 0.66666666667 0 0.66666666667 1 0 0.66666666667 
0 0.33333333333 0.66666666667 0.33333333333 0.33333333333 0.66666666667 0.66666666667 0.33333333333 0.66666666667 
1 0.33333333333 0.66666666667 0 0.66666666667 0.66666666667 0.33333333333 0.66666666667 0.66666666667 
0.66666666667 0.66666666667 0.66666666667 1 0.66666666667 0.66666666667 0 1 0.66666666667 
0.33333333333 1 0.66666666667 0.66666666667 1 0.66666666667 1 1 0.66666666667 
0.33333333333 0 1 0.66666666667 0 1 0 0.33333333333 1 
0.33333333333 0.33333333333 1 0.66666666667 0.33333333333 1 1 0.33333333333 1 
0 0.66666666667 1 0.33333333333 0.66666666667 1 0.66666666667 0.66666666667 1 
1 0.66666666667 1 0.33333333333 1 1 0.66666666667 1 1 
1.3333333333 0 0 1.6666666667 0 0 1.3333333333 0.33333333333 0 
1.6666666667 0.33333333333 0 2 0.33333333333 0 1.3333333333 0.66666666667 0 
1.6666666667 0.66666666667 0 2 0.66666666667 0 1.3333333333 1 0 
1.6666666667 1 0 1.3333333333 0 0.33333333333 1.6666666667 0 0.33333333333 
2 0 0.33333333333 1.3333333333 0.33333333333 0.33333333333 1.6666666667 0.33333333333 0.33333333333 
2 0.33333333333 0.33333333333 1.3333333333 0.66666666667 0.33333333333 1.6666666667 0.66666666667 0.33333333333 
2 0.66666666667 0.33333333333 1.3333333333 1 0.33333333333 1.6666666667 1 0.33333333333 
2 1 0.33333333333 1.3333333333 0 0.66666666667 1.6666666667 0 0.66666666667 
2 0 0.66666666667 1.3333333333 0.33333333333 0.66666666667 1.6666666667 0.33333333333 0.66666666667 
2 0.33333333333 0.66666666667 1.3333333333 0.66666666667 0.66666666667 1.6666666667 0.66666666667 0.66666666667 
2 0.66666666667 0.66666666667 1.3333333333 1 0.66666666667 1.6666666667 1 0.66666666667 
2 1 0.66666666667 1.3333333333 0 1 1.6666666667 0 1 
1.3333333333 0.33333333333 1 1.6666666667 0.33333333333 1 2 0.33333333333 1 
1.3333333333 0.66666666667 1 1.6666666667 0.66666666667 1 2 0.66666666667 1 
1.3333333333 1 1 1.6666666667 1 1 2.3333333333 0 0 
2.6666666667 0 0 2.3333333333 0.33333333333 0 2.6666666667 0.33333333333 0 
3 0.33333333333 0 2.3333333333 0.66666666667 0 2.6666666667 0.66666666667 0 
3 0.66666666667 0 2.3333333333 1 0 2.6666666667 1 0 
2.3333333333 0 0.33333333333 2.6666666667 0 0.33333333333 3 0 0.33333333333 
2.3333333333 0.33333333333 0.33333333333 2.6666666667 0.33333333333 0.33333333333 3 0.33333333333 0.33333333333 
2.3333333333 0.66666666667 0.33333333333 2.6666666667 0.66666666667 0.33333333333 3 0.66666666667 0.33333333333 
2.3333333333 1 0.33333333333 2.6666666667 1 0.33333333333 3 1 0.33333333333 
2.3333333333 0 0.66666666667 2.6666666667 0 0.66666666667 3 0 0.66666666667 
2.3333333333 0.33333333333 0.66666666667 2.6666666667 0.33333333333 0.66666666667 3 0.33333333333 0.66666666667 
2.3333333333 0.66666666667 0.66666666667 2.6666666667 0.66666666667 0.66666666667 3 0.66666666667 0.66666666667 
2.3333333333 1 0.66666666667 2.6666666667 1 0.66666666667 3 1 0.66666666667 
2.3333333333 0 1 2.6666666667 0 1 2.3333333333 0.33333333333 1 
2.6666666667 0.33333333333 1 3 0.33333333333 1 2.3333333333 0.66666666667 1 
2.6666666667 0.66666666667 1 3 0.66666666667 1 2.3333333333 1 1 
2.6666666667 1 1 0 1.3333333333 0 0.33333333333 1.3333333333 0 
0.66666666667 1.3333333333 0 1 1.3333333333 0 0 1.6666666667 0 
0.33333333333 1.6666666667 0 0.66666666667 1.6666666667 0 1 1.6666666667 0 
0.33333333333 2 0 0.66666666667 2 0 0 1.3333333333 0.33333333333 
0.33333333333 1.3333333333 0.33333333333 0.66666666667 1.3333333333 0.33333333333 1 1.3333333333 0.33333333333 
0 1.6666666667 0.33333333333 0.33333333333 1.6666666667 0.33333333333 0.66666666667 1.6666666667 0.33333333333 
1 1.6666666667 0.33333333333 0 2 0.33333333333 0.33333333333 2 0.33333333333 
0.66666666667 2 0.33333333333 1 2 0.33333333333 0 1.3333333333 0.66666666667 
0.33333333333 1.3333333333 0.66666666667 0.66666666667 1.3333333333 0.66666666667 1 1.3333333333 0.66666666667 
0 1.6666666667 0.66666666667 0.33333333333 1.6666666667 0.66666666667 0.66666666667 1.6666666667 0.66666666667 
1 1.6666666667 0.66666666667 0 2 0.66666666667 0.33333333333 2 0.66666666667 
0.66666666667 2 0.66666666667 1 2 0.66666666667 0 1.3333333333 1 
0.33333333333 1.3333333333 1 0.66666666667 1.3333333333 1 1 1.3333333333 1 
0 1.6666666667 1 0.33333333333 1.6666666667 1 0.66666666667 1.6666666667 1 
1 1.6666666667 1 0.33333333333 2 1 0.66666666667 2 1 
1.3333333333 1.3333333333 0 1.6666666667 1.3333333333 0 2 1.3333333333 0 
1.3333333333 1.6666666667 0 1.6666666667 1.6666666667 0 2 1.6666666667 0 
1.3333333333 2 0 1.6666666667 2 0 1.3333333333 1.3333333333 0.33333333333 
1.6666666667 1.3333333333 0.33333333333 2 1.3333333333 0.33333333333 1.3333333333 1.6666666667 0.33333333333 
1.6666666667 1.6666666667 0.33333333333 2 1.6666666667 0.33333333333 1.3333333333 2 0.33333333333 
1.6666666667 2 0.33333333333 2 2 0.33333333333 1.3333333333 1.3333333333 0.66666666667 
1.6666666667 1.3333333333 0.66666666667 2 1.3333333333 0.66666666667 1.3333333333 1.6666666667 0.66666666667 
1.6666666667 1.6666666667 0.66666666667 2 1.6666666667 0.66666666667 1.3333333333 2 0.66666666667 
1.6666666667 2 0.66666666667 2 2 0.66666666667 1.3333333333 1.3333333333 1 
1.6666666667 1.3333333333 1 2 1.3333333333 1 1.3333333333 1.6666666667 1 
1.6666666667 1.6666666667 1 2 1.6666666667 1 1.3333333333 2 1 
1.6666666667 2 1 2.3333333333 1.3333333333 0 2.6666666667 1.3333333333 0 
3 1.3333333333 0 2.3333333333 1.6666666667 0 2.6666666667 1.6666666667 0 
3 1.6666666667 0 2.3333333333 2 0 2.6666666667 2 0 
2.3333333333 1.3333333333 0.33333333333 2.6666666667 1.3333333333 0.33333333333 3 1.3333333333 0.33333333333 
2.3333333333 1.6666666667 0.33333333333 2.6666666667 1.6666666667 0.33333333333 3 1.6666666667 0.33333333333 
2.3333333333 2 0.33333333333 2.6666666667 2 0.33333333333 3 2 0.33333333333 
2.3333333333 1.3333333333 0.66666666667 2.6666666667 1.3333333333 0.66666666667 3 1.3333333333 0.66666666667 
2.3333333333 1.6666666667 0.66666666667 2.6666666667 1.6666666667 0.66666666667 3 1.6666666667 0.66666666667 
2.3333333333 2 0.66666666667 2.6666666667 2 0.66666666667 3 2 0.66666666667 
2.3333333333 1.3333333333 1 2.6666666667 1.3333333333 1 3 1.3333333333 1 
2.3333333333 1.6666666667 1 2.6666666667 1.6666666667 1 3 1.6666666667 1 
2.3333333333 2 1 2.6666666667 2 1 0 2.3333333333 0 
0.33333333333 2.3333333333 0 0.66666666667 2.3333333333 0 1 2.3333333333 0 
0 2.6666666667 0 0.33333333333 2.6666666667 0 0.66666666667 2.6666666667 0 
1 2.6666666667 0 0.33333333333 3 0 0.66666666667 3 0 
0 2.3333333333 0.33333333333 0.33333333333 2.3333333333 0.33333333333 0.66666666667 2.3333333333 0.33333333333 
1 2.3333333333 0.33333333333 0 2.6666666667 0.33333333333 0.33333333333 2.6666666667 0.33333333333 
0.66666666667 2.6666666667 0.33333333333 1 2.6666666667 0.33333333333 0 3 0.33333333333 
0.33333333333 3 0.33333333333 0.66666666667 3 0.33333333333 1 3 0.33333333333 
0 2.3333333333 0.66666666667 0.33333333333 2.3333333333 0.66666666667 0.66666666667 2.3333333333 0.66666666667 
1 2.3333333333 0.66666666667 0 2.6666666667 0.66666666667 0.33333333333 2.6666666667 0.66666666667 
0.66666666667 2.6666666667 0.66666666667 1 2.6666666667 0.66666666667 0 3 0.66666666667 
0.33333333333 3 0.66666666667 0.66666666667 3 0.66666666667 1 3 0.66666666667 
0 2.3333333333 1 0.33333333333 2.3333333333 1 0.66666666667 2.3333333333 1 
1 2.3333333333 1 0 2.6666666667 1 0.33333333333 2.6666666667 1 
0.66666666667 2.6666666667 1 1 2.6666666667 1 0.33333333333 3 1 
0.66666666667 3 1 1.3333333333 2.3333333333 0 1.6666666667 2.3333333333 0 
2 2.3333333333 0 1.3333333333 2.6666666667 0 1.6666666667 2.6666666667 0 
2 2.6666666667 0 1.3333333333 3 0 1.6666666667 3 0 
1.3333333333 2.3333333333 0.33333333333 1.6666666667 2.3333333333 0.33333333333 2 2.3333333333 0.33333333333 
1.3333333333 2.6666666667 0.33333333333 1.6666666667 2.6666666667 0.33333333333 2 2.6666666667 0.33333333333 
1.3333333333 3 0.33333333333 1.6666666667 3 0.33333333333 2 3 0.33333333333 
1.3333333333 2.3333333333 0.66666666667 1.6666666667 2.3333333333 0.66666666667 2 2.3333333333 0.66666666667 
1.3333333333 2.6666666667 0.66666666667 1.6666666667 2.6666666667 0.66666666667 2 2.6666666667 0.66666666667 
1.3333333333 3 0.66666666667 1.6666666667 3 0.66666666667 2 3 0.66666666667 
1.3333333333 2.3333333333 1 1.6666666667 2.3333333333 1 2 2.3333333333 1 
1.3333333333 2.6666666667 1 1.6666666667 2.6666666667 1 2 2.6666666667 1 
1.3333333333 3 1 1.6666666667 3 1 2.3333333333 2.3333333333 0 
2.6666666667 2.3333333333 0 3 2.3333333333 0 2.3333333333 2.6666666667 0 
2.6666666667 2.6666666667 0 3 2.6666666667 0 2.3333333333 3 0 
2.6666666667 3 0 2.3333333333 2.3333333333 0.33333333333 2.6666666667 2.3333333333 0.33333333333 
[...]
POINT_DATA 1000
FIELD FieldData 2
DistanceToCenter 1 1000 double
2.5980762114 2.1794494718 2.1794494718 2.5980762114 2.1794494718 1.6583123952 1.6583123952 2.1794494718 2.1794494718 
1.6583123952 1.6583123952 2.1794494718 2.5980762114 2.1794494718 2.1794494718 2.5980762114 2.1794494718 1.6583123952 
1.6583123952 2.1794494718 1.6583123952 0.86602540378 0.86602540378 1.6583123952 1.6583123952 0.86602540378 0.86602540378 
1.6583123952 2.1794494718 1.6583123952 1.6583123952 2.1794494718 2.1794494718 1.6583123952 1.6583123952 2.1794494718 
1.6583123952 0.86602540378 0.86602540378 1.6583123952 1.6583123952 0.86602540378 0.86602540378 1.6583123952 2.1794494718 
1.6583123952 1.6583123952 2.1794494718 2.5980762114 2.1794494718 2.1794494718 2.5980762114 2.1794494718 1.6583123952 
1.6583123952 2.1794494718 2.1794494718 1.6583123952 1.6583123952 2.1794494718 2.5980762114 2.1794494718 2.1794494718 
2.5980762114 2.4209731744 2.2791323885 2.4209731744 2.2298480267 2.0749832663 1.9649710204 2.2791323885 2.0749832663 
1.9075871904 1.7873008825 1.9649710204 1.7873008825 2.4209731744 2.2298480267 2.0749832663 1.9649710204 2.2298480267 
2.0207259422 1.8484227511 1.7240134055 2.0749832663 1.8484227511 1.6583123952 1.5184055965 1.9649710204 1.7240134055 
1.5184055965 1.364225462 2.2791323885 2.0749832663 1.9075871904 1.7873008825 2.0749832663 1.8484227511 1.6583123952 
1.5184055965 1.9075871904 1.6583123952 1.443375673 1.280190958 1.7873008825 1.5184055965 1.280190958 1.0929064207 
1.9649710204 1.7873008825 1.9649710204 1.7240134055 1.5184055965 1.364225462 1.7873008825 1.5184055965 1.280190958 
1.0929064207 1.364225462 1.0929064207 2.1278575558 2.1278575558 1.9075871904 1.9075871904 1.9649710204 1.7240134055 
1.7240134055 1.7873008825 1.589898669 1.589898669 1.9075871904 1.9075871904 1.9649710204 1.6583123952 1.6583123952 
1.7240134055 1.443375673 1.443375673 1.5184055965 1.280190958 1.280190958 1.364225462 1.7240134055 1.7240134055 
1.7873008825 1.443375673 1.443375673 1.5184055965 1.1902380714 1.1902380714 1.280190958 0.98601329718 0.98601329718 
1.0929064207 1.589898669 1.589898669 1.280190958 1.280190958 1.364225462 0.98601329718 0.98601329718 1.0929064207 
0.72648315726 0.72648315726 2.2791323885 2.4209731744 2.0749832663 2.2298480267 2.4209731744 1.9075871904 2.0749832663 
2.2791323885 1.7873008825 1.9649710204 2.0749832663 2.2298480267 2.4209731744 1.8484227511 2.0207259422 2.2298480267 
1.6583123952 1.8484227511 2.0749832663 1.5184055965 1.7240134055 1.9649710204 1.9075871904 2.0749832663 2.2791323885 
1.6583123952 1.8484227511 2.0749832663 1.443375673 1.6583123952 1.9075871904 1.280190958 1.5184055965 1.7873008825 
1.7873008825 1.9649710204 1.5184055965 1.7240134055 1.9649710204 1.280190958 1.5184055965 1.7873008825 1.0929064207 
1.364225462 2.1278575558 1.9075871904 1.7240134055 1.589898669 2.1278575558 1.9075871904 1.7240134055 1.589898669 
1.9649710204 1.7873008825 1.9075871904 1.6583123952 1.443375673 1.280190958 1.9075871904 1.6583123952 1.443375673 
1.280190958 1.9649710204 1.7240134055 1.5184055965 1.364225462 1.7240134055 1.443375673 1.1902380714 0.98601329718 
1.7240134055 1.443375673 1.1902380714 0.98601329718 1.7873008825 1.5184055965 1.280190958 1.0929064207 1.589898669 
1.280190958 0.98601329718 0.72648315726 1.589898669 1.280190958 0.98601329718 0.72648315726 1.364225462 1.0929064207 
1.5184055965 1.5184055965 1.589898669 1.5184055965 1.5184055965 1.589898669 1.589898669 1.589898669 1.1902380714 
1.1902380714 1.280190958 1.1902380714 1.1902380714 1.280190958 1.280190958 1.280190958 1.364225462 0.86602540378 
0.86602540378 0.98601329718 0.86602540378 0.86602540378 0.98601329718 0.98601329718 0.98601329718 1.0929064207 0.55277079839 
0.55277079839 0.72648315726 0.55277079839 0.55277079839 0.72648315726 0.72648315726 0.72648315726 1.7240134055 1.9075871904 
2.1278575558 1.7240134055 1.9075871904 2.1278575558 1.7873008825 1.9649710204 1.443375673 1.6583123952 1.9075871904 
1.443375673 1.6583123952 1.9075871904 1.5184055965 1.7240134055 1.9649710204 1.1902380714 1.443375673 1.7240134055 
1.1902380714 1.443375673 1.7240134055 1.280190958 1.5184055965 1.7873008825 0.98601329718 1.280190958 1.589898669 
0.98601329718 1.280190958 1.589898669 1.0929064207 1.364225462 2.2791323885 2.0749832663 1.9075871904 1.7873008825 
2.4209731744 2.2298480267 2.0749832663 1.9649710204 2.4209731744 2.2791323885 2.0749832663 1.8484227511 1.6583123952 
1.5184055965 2.2298480267 2.0207259422 1.8484227511 1.7240134055 2.4209731744 2.2298480267 2.0749832663 1.9649710204 
1.9075871904 1.6583123952 1.443375673 1.280190958 2.0749832663 1.8484227511 1.6583123952 1.5184055965 2.2791323885 
2.0749832663 1.9075871904 1.7873008825 1.7873008825 1.5184055965 1.280190958 1.0929064207 1.9649710204 1.7240134055 
1.5184055965 1.364225462 1.9649710204 1.7873008825 1.7240134055 1.7240134055 1.7873008825 1.9075871904 1.9075871904 
1.9649710204 2.1278575558 2.1278575558 1.443375673 1.443375673 1.5184055965 1.6583123952 1.6583123952 1.7240134055 
1.9075871904 1.9075871904 1.9649710204 1.1902380714 1.1902380714 1.280190958 1.443375673 1.443375673 1.5184055965 
1.7240134055 1.7240134055 1.7873008825 0.98601329718 0.98601329718 1.0929064207 1.280190958 1.280190958 1.364225462 
1.589898669 1.589898669 1.9075871904 2.0749832663 2.2791323885 2.0749832663 2.2298480267 2.4209731744 2.2791323885 
2.4209731744 1.6583123952 1.8484227511 2.0749832663 1.8484227511 2.0207259422 2.2298480267 2.0749832663 2.2298480267 
2.4209731744 1.443375673 1.6583123952 1.9075871904 1.6583123952 1.8484227511 2.0749832663 1.9075871904 2.0749832663 
2.2791323885 1.280190958 1.5184055965 1.7873008825 1.5184055965 1.7240134055 1.9649710204 1.7873008825 1.9649710204 
2.1278575558 1.9075871904 1.7240134055 1.589898669 1.9075871904 1.6583123952 1.443375673 1.280190958 1.7240134055 
1.443375673 1.1902380714 0.98601329718 1.589898669 1.280190958 0.98601329718 0.72648315726 2.1278575558 1.9075871904 
1.7240134055 1.589898669 1.9075871904 1.6583123952 1.443375673 1.280190958 1.7240134055 1.443375673 1.1902380714 
0.98601329718 1.589898669 1.280190958 0.98601329718 0.72648315726 1.9649710204 1.7873008825 1.9649710204 1.7240134055 
1.5184055965 1.364225462 1.7873008825 1.5184055965 1.280190958 1.0929064207 1.364225462 1.0929064207 1.5184055965 
1.5184055965 1.589898669 1.1902380714 1.1902380714 1.280190958 0.86602540378 0.86602540378 0.98601329718 0.55277079839 
0.55277079839 0.72648315726 1.5184055965 1.5184055965 1.589898669 1.1902380714 1.1902380714 1.280190958 0.86602540378 
0.86602540378 0.98601329718 0.55277079839 0.55277079839 0.72648315726 1.589898669 1.589898669 1.280190958 1.280190958 
1.364225462 0.98601329718 0.98601329718 1.0929064207 0.72648315726 0.72648315726 1.7240134055 1.9075871904 2.1278575558 
1.443375673 1.6583123952 1.9075871904 1.1902380714 1.443375673 1.7240134055 0.98601329718 1.280190958 1.589898669 
1.7240134055 1.9075871904 2.1278575558 1.443375673 1.6583123952 1.9075871904 1.1902380714 1.443375673 1.7240134055 
0.98601329718 1.280190958 1.589898669 1.7873008825 1.9649710204 1.5184055965 1.7240134055 1.9649710204 1.280190958 
1.5184055965 1.7873008825 1.0929064207 1.364225462 1.5184055965 1.1902380714 0.86602540378 0.55277079839 1.5184055965 
1.1902380714 0.86602540378 0.55277079839 1.589898669 1.280190958 0.98601329718 0.72648315726 1.5184055965 1.1902380714 
0.86602540378 0.55277079839 1.5184055965 1.1902380714 0.86602540378 0.55277079839 1.589898669 1.280190958 0.98601329718 
0.72648315726 1.589898669 1.280190958 0.98601329718 0.72648315726 1.589898669 1.280190958 0.98601329718 0.72648315726 
1.364225462 1.0929064207 0.28867513459 0.28867513459 0.55277079839 0.28867513459 0.28867513459 0.55277079839 0.55277079839 
0.55277079839 0.72648315726 0.28867513459 0.28867513459 0.55277079839 0.28867513459 0.28867513459 0.55277079839 0.55277079839 
0.55277079839 0.72648315726 0.55277079839 0.55277079839 0.72648315726 0.55277079839 0.55277079839 0.72648315726 0.72648315726 
0.72648315726 0.86602540378 1.1902380714 1.5184055965 0.86602540378 1.1902380714 1.5184055965 0.98601329718 1.280190958 
1.589898669 0.86602540378 1.1902380714 1.5184055965 0.86602540378 1.1902380714 1.5184055965 0.98601329718 1.280190958 
1.589898669 0.98601329718 1.280190958 1.589898669 0.98601329718 1.280190958 1.589898669 1.0929064207 1.364225462 
1.7240134055 1.443375673 1.1902380714 0.98601329718 1.9075871904 1.6583123952 1.443375673 1.280190958 2.1278575558 
1.9075871904 1.7240134055 1.589898669 1.7240134055 1.443375673 1.1902380714 0.98601329718 1.9075871904 1.6583123952 
1.443375673 1.280190958 2.1278575558 1.9075871904 1.7240134055 1.589898669 1.7873008825 1.5184055965 1.280190958 
1.0929064207 1.9649710204 1.7240134055 1.5184055965 1.364225462 1.9649710204 1.7873008825 0.86602540378 0.86602540378 
0.98601329718 1.1902380714 1.1902380714 1.280190958 1.5184055965 1.5184055965 1.589898669 0.86602540378 0.86602540378 
0.98601329718 1.1902380714 1.1902380714 1.280190958 1.5184055965 1.5184055965 1.589898669 0.98601329718 0.98601329718 
1.0929064207 1.280190958 1.280190958 1.364225462 1.589898669 1.589898669 1.1902380714 1.443375673 1.7240134055 
1.443375673 1.6583123952 1.9075871904 1.7240134055 1.9075871904 2.1278575558 1.1902380714 1.443375673 1.7240134055 
1.443375673 1.6583123952 1.9075871904 1.7240134055 1.9075871904 2.1278575558 1.280190958 1.5184055965 1.7873008825 
1.5184055965 1.7240134055 1.9649710204 1.7873008825 1.9649710204 2.2791323885 2.0749832663 1.9075871904 1.7873008825 
2.0749832663 1.8484227511 1.6583123952 1.5184055965 1.9075871904 1.6583123952 1.443375673 1.280190958 1.7873008825 
1.5184055965 1.280190958 1.0929064207 2.4209731744 2.2298480267 2.0749832663 1.9649710204 2.2298480267 2.0207259422 
1.8484227511 1.7240134055 2.0749832663 1.8484227511 1.6583123952 1.5184055965 1.9649710204 1.7240134055 1.5184055965 
1.364225462 2.4209731744 2.2791323885 2.4209731744 2.2298480267 2.0749832663 1.9649710204 2.2791323885 2.0749832663 
1.9075871904 1.7873008825 1.9649710204 1.7873008825 1.7240134055 1.7240134055 1.7873008825 1.443375673 1.443375673 
1.5184055965 1.1902380714 1.1902380714 1.280190958 0.98601329718 0.98601329718 1.0929064207 1.9075871904 1.9075871904 
1.9649710204 1.6583123952 1.6583123952 1.7240134055 1.443375673 1.443375673 1.5184055965 1.280190958 1.280190958 
1.364225462 2.1278575558 2.1278575558 1.9075871904 1.9075871904 1.9649710204 1.7240134055 1.7240134055 1.7873008825 
1.589898669 1.589898669 1.9075871904 2.0749832663 2.2791323885 1.6583123952 1.8484227511 2.0749832663 1.443375673 
1.6583123952 1.9075871904 1.280190958 1.5184055965 1.7873008825 2.0749832663 2.2298480267 2.4209731744 1.8484227511 
2.0207259422 2.2298480267 1.6583123952 1.8484227511 2.0749832663 1.5184055965 1.7240134055 1.9649710204 2.2791323885 
2.4209731744 2.0749832663 2.2298480267 2.4209731744 1.9075871904 2.0749832663 2.2791323885 1.7873008825 1.9649710204 
1.7240134055 1.443375673 1.1902380714 0.98601329718 1.7240134055 1.443375673 1.1902380714 0.98601329718 1.7873008825 
1.5184055965 1.280190958 1.0929064207 1.9075871904 1.6583123952 1.443375673 1.280190958 1.9075871904 1.6583123952 
1.443375673 1.280190958 1.9649710204 1.7240134055 1.5184055965 1.364225462 2.1278575558 1.9075871904 1.7240134055 
1.589898669 2.1278575558 1.9075871904 1.7240134055 1.589898669 1.9649710204 1.7873008825 0.86602540378 0.86602540378 
0.98601329718 0.86602540378 0.86602540378 0.98601329718 0.98601329718 0.98601329718 1.0929064207 1.1902380714 1.1902380714 
1.280190958 1.1902380714 1.1902380714 1.280190958 1.280190958 1.280190958 1.364225462 1.5184055965 1.5184055965 
1.589898669 1.5184055965 1.5184055965 1.589898669 1.589898669 1.589898669 1.1902380714 1.443375673 1.7240134055 
1.1902380714 1.443375673 1.7240134055 1.280190958 1.5184055965 1.7873008825 1.443375673 1.6583123952 1.9075871904 
1.443375673 1.6583123952 1.9075871904 1.5184055965 1.7240134055 1.9649710204 1.7240134055 1.9075871904 2.1278575558 
1.7240134055 1.9075871904 2.1278575558 1.7873008825 1.9649710204 1.9075871904 1.6583123952 1.443375673 1.280190958 
2.0749832663 1.8484227511 1.6583123952 1.5184055965 2.2791323885 2.0749832663 1.9075871904 1.7873008825 2.0749832663 
1.8484227511 1.6583123952 1.5184055965 2.2298480267 2.0207259422 1.8484227511 1.7240134055 2.4209731744 2.2298480267 
2.0749832663 1.9649710204 2.2791323885 2.0749832663 1.9075871904 1.7873008825 2.4209731744 2.2298480267 2.0749832663 
1.9649710204 2.4209731744 2.2791323885 1.1902380714 1.1902380714 1.280190958 1.443375673 1.443375673 1.5184055965 
1.7240134055 1.7240134055 1.7873008825 1.443375673 1.443375673 1.5184055965 1.6583123952 1.6583123952 1.7240134055 
1.9075871904 1.9075871904 1.9649710204 1.7240134055 1.7240134055 1.7873008825 1.9075871904 1.9075871904 1.9649710204 
2.1278575558 2.1278575558 1.443375673 1.6583123952 1.9075871904 1.6583123952 1.8484227511 2.0749832663 1.9075871904 
2.0749832663 2.2791323885 1.6583123952 1.8484227511 2.0749832663 1.8484227511 2.0207259422 2.2298480267 2.0749832663 
2.2298480267 2.4209731744 1.9075871904 2.0749832663 2.2791323885 2.0749832663 2.2298480267 2.4209731744 2.2791323885 
2.4209731744 
METADATA
INFORMATION 0

Polynomial 1 1000 double
1 2 3 4 2 3 4 5 3 
4 5 6 4 5 6 7 2 3 
4 5 3 4 5 6 4 5 6 
7 5 6 7 8 3 4 5 6 
4 5 6 7 5 6 7 8 6 
7 8 9 4 5 6 7 5 6 
7 8 6 7 8 9 7 8 9 
10 1 1 1 1 1 2 1 1 
1 2 2 2 1 1 1 2 1 
1 1 2 1 1 1 2 2 2 
2 3 1 1 1 2 1 1 1 
2 1 1 1 2 2 2 2 3 
2 2 2 2 2 3 2 2 2 
3 3 3 2 2 2 2 3 2 
2 3 3 3 2 2 3 2 2 
3 2 2 3 3 3 4 2 2 
3 2 2 3 2 2 3 3 3 
4 3 3 3 3 4 3 3 4 
4 4 3 3 3 3 4 3 3 
4 4 4 3 3 4 3 3 4 
3 3 4 4 4 5 3 3 4 
3 3 4 3 3 4 4 4 5 
4 4 4 4 5 4 4 5 5 
5 2 2 2 3 2 2 2 3 
3 3 2 2 2 3 2 2 2 
3 3 3 3 4 2 2 2 3 
2 2 2 3 3 3 3 4 3 
3 3 4 3 3 3 4 4 4 
3 3 4 3 3 4 4 4 3 
3 4 3 3 4 4 4 5 3 
3 4 3 3 4 4 4 5 4 
4 5 4 4 5 5 5 4 4 
5 4 4 5 5 5 4 4 5 
4 4 5 5 5 6 4 4 5 
4 4 5 5 5 6 5 5 6 
5 5 6 6 6 3 3 3 4 
3 3 3 4 4 4 3 3 3 
4 3 3 3 4 4 4 4 5 
3 3 3 4 3 3 3 4 4 
4 4 5 4 4 4 5 4 4 
4 5 5 5 4 4 5 4 4 
5 5 5 4 4 5 4 4 5 
5 5 6 4 4 5 4 4 5 
5 5 6 5 5 6 5 5 6 
6 6 5 5 6 5 5 6 6 
6 5 5 6 5 5 6 6 6 
7 5 5 6 5 5 6 6 6 
7 6 6 7 6 6 7 7 7 
2 2 2 3 2 2 2 3 2 
2 2 3 3 3 3 4 2 2 
2 3 2 2 2 3 2 2 2 
3 3 3 3 4 3 3 3 3 
3 4 3 3 3 4 4 4 3 
3 4 3 3 4 3 3 4 4 
4 5 3 3 4 3 3 4 3 
3 4 4 4 5 4 4 4 4 
5 4 4 5 5 5 4 4 5 
4 4 5 4 4 5 5 5 6 
4 4 5 4 4 5 4 4 5 
5 5 6 5 5 5 5 6 5 
5 6 6 6 3 3 3 4 3 
3 3 4 4 4 4 5 3 3 
3 4 3 3 3 4 4 4 4 
5 4 4 4 5 4 4 4 5 
5 5 4 4 5 4 4 5 5 
5 6 4 4 5 4 4 5 5 
5 6 5 5 6 5 5 6 6 
6 5 5 6 5 5 6 6 6 
7 5 5 6 5 5 6 6 6 
7 6 6 7 6 6 7 7 7 
4 4 4 5 4 4 4 5 5 
5 5 6 4 4 4 5 4 4 
4 5 5 5 5 6 5 5 5 
6 5 5 5 6 6 6 5 5 
6 5 5 6 6 6 7 5 5 
6 5 5 6 6 6 7 6 6 
7 6 6 7 7 7 6 6 7 
6 6 7 7 7 8 6 6 7 
6 6 7 7 7 8 7 7 8 
7 7 8 8 8 3 3 3 4 
3 3 3 4 3 3 3 4 4 
4 4 5 3 3 3 4 3 3 
3 4 3 3 3 4 4 4 4 
5 4 4 4 4 4 5 4 4 
4 5 5 5 4 4 5 4 4 
5 4 4 5 5 5 6 4 4 
5 4 4 5 4 4 5 5 5 
6 5 5 5 5 6 5 5 6 
6 6 5 5 6 5 5 6 5 
5 6 6 6 7 5 5 6 5 
5 6 5 5 6 6 6 7 6 
6 6 6 7 6 6 7 7 7 
4 4 4 5 4 4 4 5 5 
5 5 6 4 4 4 5 4 4 
4 5 5 5 5 6 5 5 5 
6 5 5 5 6 6 6 5 5 
6 5 5 6 6 6 7 5 5 
6 5 5 6 6 6 7 6 6 
7 6 6 7 7 7 6 6 7 
6 6 7 7 7 8 6 6 7 
6 6 7 7 7 8 7 7 8 
7 7 8 8 8 5 5 5 6 
5 5 5 6 6 6 6 7 5 
5 5 6 5 5 5 6 6 6 
6 7 6 6 6 7 6 6 6 
7 7 7 6 6 7 6 6 7 
7 7 8 6 6 7 6 6 7 
7 7 8 7 7 8 7 7 8 
8 8 7 7 8 7 7 8 8 
8 9 7 7 8 7 7 8 8 
8 9 8 8 9 8 8 9 9 
9 
METADATA
INFORMATION 0

