<VTKFile type="UnstructuredGrid" version="1.0" byte_order="LittleEndian" header_type="UInt64">
  <UnstructuredGrid>
    <Piece NumberOfPoints="2197" NumberOfCells="27">
      <PointData>
        <DataArray type="Float64" Name="DistanceToCenter" format="ascii" RangeMin="0" RangeMax="2.598076211353316">
          2.598076211353316 2.179449471770337 2.179449471770337 2.598076211353316 2.179449471770337 1.6583123951777
          1.6583123951777 2.179449471770337 2.179449471770337 1.6583123951777 1.6583123951777 2.179449471770337
          2.598076211353316 2.179449471770337 2.179449471770337 2.598076211353316 2.179449471770337 1.6583123951777
          1.6583123951777 2.179449471770337 1.6583123951777 0.8660254037844386 0.8660254037844386 1.6583123951777
          1.6583123951777 0.8660254037844386 0.8660254037844386 1.6583123951777 2.179449471770337 1.6583123951777
          1.6583123951777 2.179449471770337 2.179449471770337 1.6583123951777 1.6583123951777 2.179449471770337
          1.6583123951777 0.8660254037844386 0.8660254037844386 1.6583123951777 1.6583123951777 0.8660254037844386
          0.8660254037844386 1.6583123951777 2.179449471770337 1.6583123951777 1.6583123951777 2.179449471770337
          2.598076211353316 2.179449471770337 2.179449471770337 2.598076211353316 2.179449471770337 1.6583123951777
          1.6583123951777 2.179449471770337 2.179449471770337 1.6583123951777 1.6583123951777 2.179449471770337
          2.598076211353316 2.179449471770337 2.179449471770337 2.598076211353316 2.462214450449026 2.345207879911715
          2.25 2.462214450449026 2.318404623873926 2.1937410968480306 2.091650066335189 2.0155644370746373
          2.345207879911715 2.1937410968480306 2.0615528128088303 1.9525624189766635 1.8708286933869707 2.25
          2.091650066335189 1.9525624189766635 1.8371173070873836 1.75 2.0155644370746373 1.8708286933869707
          1.75 2.462214450449026 2.318404623873926 2.1937410968480306 2.091650066335189 2.0155644370746373
          2.318404623873926 2.165063509461097 2.03100960115899 1.920286436967152 1.8371173070873836 2.1937410968480306
          2.03100960115899 1.8874586088176875 1.7677669529663689 1.6770509831248424 2.091650066335189 1.920286436967152
          1.7677669529663689 1.6393596310755 1.541103500742244 2.0155644370746373 1.8371173070873836 1.6770509831248424
          1.541103500742244 1.4361406616345072 2.345207879911715 2.1937410968480306 2.0615528128088303 1.9525624189766635
          1.8708286933869707 2.1937410968480306 2.03100960115899 1.8874586088176875 1.7677669529663689 1.6770509831248424
          2.0615528128088303 1.8874586088176875 1.7320508075688772 1.6007810593582121 1.5 1.9525624189766635
          1.7677669529663689 1.6007810593582121 1.4577379737113252 1.346291201783626 1.8708286933869707 1.6770509831248424
          1.5 1.346291201783626 1.224744871391589 2.25 2.091650066335189 1.9525624189766635
          1.8371173070873836 1.75 2.091650066335189 1.920286436967152 1.7677669529663689 1.6393596310755
          1.541103500742244 1.9525624189766635 1.7677669529663689 1.6007810593582121 1.4577379737113252 1.346291201783626
          1.8371173070873836 1.6393596310755 1.4577379737113252 1.299038105676658 1.1726039399558574 1.75
          1.541103500742244 1.346291201783626 1.1726039399558574 1.0307764064044151 2.0155644370746373 1.8708286933869707
          1.75 2.0155644370746373 1.8371173070873836 1.6770509831248424 1.541103500742244 1.4361406616345072
          1.8708286933869707 1.6770509831248424 1.5 1.346291201783626 1.224744871391589 1.75
          1.541103500742244 1.346291201783626 1.1726039399558574 1.0307764064044151 1.4361406616345072 1.224744871391589
          1.0307764064044151 2.1360009363293826 2.1213203435596424 2.1360009363293826 1.9685019685029528 1.9525624189766635
          1.9685019685029528 2.0155644370746373 1.8200274723201295 1.8027756377319946 1.8200274723201295 1.8708286933869707
          1.695582495781317 1.6770509831248424 1.695582495781317 1.75 1.6007810593582121 1.5811388300841898
          1.6007810593582121 1.9685019685029528 1.9525624189766635 1.9685019685029528 2.0155644370746373 1.7853571071357126
          1.7677669529663689 1.7853571071357126 1.8371173070873836 1.620185174601965 1.6007810593582121 1.620185174601965
          1.6770509831248424 1.479019945774904 1.4577379737113252 1.479019945774904 1.541103500742244 1.3693063937629153
          1.346291201783626 1.3693063937629153 1.4361406616345072 1.8200274723201295 1.8027756377319946 1.8200274723201295
          1.8708286933869707 1.620185174601965 1.6007810593582121 1.620185174601965 1.6770509831248424 1.4361406616345072
          1.4142135623730951 1.4361406616345072 1.5 1.2747548783981961 1.25 1.2747548783981961
          1.346291201783626 1.14564392373896 1.118033988749895 1.14564392373896 1.224744871391589 1.695582495781317
          1.6770509831248424 1.695582495781317 1.75 1.479019945774904 1.4577379737113252 1.479019945774904
          1.541103500742244 1.2747548783981961 1.25 1.2747548783981961 1.346291201783626 1.0897247358851685
          1.0606601717798212 1.0897247358851685 1.1726039399558574 0.9354143466934853 0.9013878188659973 0.9354143466934853
          1.0307764064044151 1.6007810593582121 1.5811388300841898 1.6007810593582121 1.3693063937629153 1.346291201783626
          1.3693063937629153 1.4361406616345072 1.14564392373896 1.118033988749895 1.14564392373896 1.224744871391589
          0.9354143466934853 0.9013878188659973 0.9354143466934853 1.0307764064044151 0.75 0.7071067811865476
          0.75 2.25 2.345207879911715 2.462214450449026 2.091650066335189 2.1937410968480306
          2.318404623873926 2.462214450449026 1.9525624189766635 2.0615528128088303 2.1937410968480306 2.345207879911715
          1.8371173070873836 1.9525624189766635 2.091650066335189 2.25 1.75 1.8708286933869707
          2.0155644370746373 2.091650066335189 2.1937410968480306 2.318404623873926 2.462214450449026 1.920286436967152
          2.03100960115899 2.165063509461097 2.318404623873926 1.7677669529663689 1.8874586088176875 2.03100960115899
          2.1937410968480306 1.6393596310755 1.7677669529663689 1.920286436967152 2.091650066335189 1.541103500742244
          1.6770509831248424 1.8371173070873836 2.0155644370746373 1.9525624189766635 2.0615528128088303 2.1937410968480306
          2.345207879911715 1.7677669529663689 1.8874586088176875 2.03100960115899 2.1937410968480306 1.6007810593582121
          1.7320508075688772 1.8874586088176875 2.0615528128088303 1.4577379737113252 1.6007810593582121 1.7677669529663689
          1.9525624189766635 1.346291201783626 1.5 1.6770509831248424 1.8708286933869707 1.8371173070873836
          1.9525624189766635 2.091650066335189 2.25 1.6393596310755 1.7677669529663689 1.920286436967152
          2.091650066335189 1.4577379737113252 1.6007810593582121 1.7677669529663689 1.9525624189766635 1.299038105676658
          1.4577379737113252 1.6393596310755 1.8371173070873836 1.1726039399558574 1.346291201783626 1.541103500742244
          1.75 1.75 1.8708286933869707 2.0155644370746373 1.541103500742244 1.6770509831248424
          1.8371173070873836 2.0155644370746373 1.346291201783626 1.5 1.6770509831248424 1.8708286933869707
          1.1726039399558574 1.346291201783626 1.541103500742244 1.75 1.0307764064044151 1.224744871391589
          1.4361406616345072 2.1360009363293826 1.9685019685029528 1.8200274723201295 1.695582495781317 1.6007810593582121
          2.1213203435596424 1.9525624189766635 1.8027756377319946 1.6770509831248424 1.5811388300841898 2.1360009363293826
          1.9685019685029528 1.8200274723201295 1.695582495781317 1.6007810593582121 2.0155644370746373 1.8708286933869707
          1.75 1.9685019685029528 1.7853571071357126 1.620185174601965 1.479019945774904 1.3693063937629153
          1.9525624189766635 1.7677669529663689 1.6007810593582121 1.4577379737113252 1.346291201783626 1.9685019685029528
          1.7853571071357126 1.620185174601965 1.479019945774904 1.3693063937629153 2.0155644370746373 1.8371173070873836
          1.6770509831248424 1.541103500742244 1.4361406616345072 1.8200274723201295 1.620185174601965 1.4361406616345072
          1.2747548783981961 1.14564392373896 1.8027756377319946 1.6007810593582121 1.4142135623730951 1.25
          1.118033988749895 1.8200274723201295 1.620185174601965 1.4361406616345072 1.2747548783981961 1.14564392373896
          1.8708286933869707 1.6770509831248424 1.5 1.346291201783626 1.224744871391589 1.695582495781317
          1.479019945774904 1.2747548783981961 1.0897247358851685 0.9354143466934853 1.6770509831248424 1.4577379737113252
          1.25 1.0606601717798212 0.9013878188659973 1.695582495781317 1.479019945774904 1.2747548783981961
          1.0897247358851685 0.9354143466934853 1.75 1.541103500742244 1.346291201783626 1.1726039399558574
          1.0307764064044151 1.6007810593582121 1.3693063937629153 1.14564392373896 0.9354143466934853 0.75
          1.5811388300841898 1.346291201783626 1.118033988749895 0.9013878188659973 0.7071067811865476 1.6007810593582121
          1.3693063937629153 1.14564392373896 0.9354143466934853 0.75 1.4361406616345072 1.224744871391589
          1.0307764064044151 1.541103500742244 1.5206906325745548 1.541103500742244 1.6007810593582121 1.5206906325745548
          1.5 1.5206906325745548 1.5811388300841898 1.541103500742244 1.5206906325745548 1.541103500742244
          1.6007810593582121 1.6007810593582121 1.5811388300841898 1.6007810593582121 1.299038105676658 1.2747548783981961
          1.299038105676658 1.3693063937629153 1.2747548783981961 1.25 1.2747548783981961 1.346291201783626
          1.299038105676658 1.2747548783981961 1.299038105676658 1.3693063937629153 1.3693063937629153 1.346291201783626
          1.3693063937629153 1.4361406616345072 1.0606601717798212 1.0307764064044151 1.0606601717798212 1.14564392373896
          1.0307764064044151 1 1.0307764064044151 1.118033988749895 1.0606601717798212 1.0307764064044151
          1.0606601717798212 1.14564392373896 1.14564392373896 1.118033988749895 1.14564392373896 1.224744871391589
          0.82915619758885 0.7905694150420949 0.82915619758885 0.9354143466934853 0.7905694150420949 0.75
          0.7905694150420949 0.9013878188659973 0.82915619758885 0.7905694150420949 0.82915619758885 0.9354143466934853
          0.9354143466934853 0.9013878188659973 0.9354143466934853 1.0307764064044151 0.6123724356957945 0.5590169943749475
          0.6123724356957945 0.75 0.5590169943749475 0.5 0.5590169943749475 0.7071067811865476
          0.6123724356957945 0.5590169943749475 0.6123724356957945 0.75 0.75 0.7071067811865476
          0.75 1.695582495781317 1.8200274723201295 1.9685019685029528 2.1360009363293826 1.6770509831248424
          1.8027756377319946 1.9525624189766635 2.1213203435596424 1.695582495781317 1.8200274723201295 1.9685019685029528
          2.1360009363293826 1.75 1.8708286933869707 2.0155644370746373 1.479019945774904 1.620185174601965
          1.7853571071357126 1.9685019685029528 1.4577379737113252 1.6007810593582121 1.7677669529663689 1.9525624189766635
          1.479019945774904 1.620185174601965 1.7853571071357126 1.9685019685029528 1.541103500742244 1.6770509831248424
          1.8371173070873836 2.0155644370746373 1.2747548783981961 1.4361406616345072 1.620185174601965 1.8200274723201295
          1.25 1.4142135623730951 1.6007810593582121 1.8027756377319946 1.2747548783981961 1.4361406616345072
          1.620185174601965 1.8200274723201295 1.346291201783626 1.5 1.6770509831248424 1.8708286933869707
          1.0897247358851685 1.2747548783981961 1.479019945774904 1.695582495781317 1.0606601717798212 1.25
          1.4577379737113252 1.6770509831248424 1.0897247358851685 1.2747548783981961 1.479019945774904 1.695582495781317
          1.1726039399558574 1.346291201783626 1.541103500742244 1.75 0.9354143466934853 1.14564392373896
          1.3693063937629153 1.6007810593582121 0.9013878188659973 1.118033988749895 1.346291201783626 1.5811388300841898
          0.9354143466934853 1.14564392373896 1.3693063937629153 1.6007810593582121 1.0307764064044151 1.224744871391589
          1.4361406616345072 2.25 2.091650066335189 1.9525624189766635 1.8371173070873836 1.75
          2.345207879911715 2.1937410968480306 2.0615528128088303 1.9525624189766635 1.8708286933869707 2.462214450449026
          2.318404623873926 2.1937410968480306 2.091650066335189 2.0155644370746373 2.462214450449026 2.345207879911715
          2.25 2.091650066335189 1.920286436967152 1.7677669529663689 1.6393596310755 1.541103500742244
          2.1937410968480306 2.03100960115899 1.8874586088176875 1.7677669529663689 1.6770509831248424 2.318404623873926
          2.165063509461097 2.03100960115899 1.920286436967152 1.8371173070873836 2.462214450449026 2.318404623873926
          2.1937410968480306 2.091650066335189 2.0155644370746373 1.9525624189766635 1.7677669529663689 1.6007810593582121
          1.4577379737113252 1.346291201783626 2.0615528128088303 1.8874586088176875 1.7320508075688772 1.6007810593582121
          1.5 2.1937410968480306 2.03100960115899 1.8874586088176875 1.7677669529663689 1.6770509831248424
          2.345207879911715 2.1937410968480306 2.0615528128088303 1.9525624189766635 1.8708286933869707 1.8371173070873836
          1.6393596310755 1.4577379737113252 1.299038105676658 1.1726039399558574 1.9525624189766635 1.7677669529663689
          1.6007810593582121 1.4577379737113252 1.346291201783626 2.091650066335189 1.920286436967152 1.7677669529663689
          1.6393596310755 1.541103500742244 2.25 2.091650066335189 1.9525624189766635 1.8371173070873836
          1.75 1.75 1.541103500742244 1.346291201783626 1.1726039399558574 1.0307764064044151
          1.8708286933869707 1.6770509831248424 1.5 1.346291201783626 1.224744871391589 2.0155644370746373
          1.8371173070873836 1.6770509831248424 1.541103500742244 1.4361406616345072 2.0155644370746373 1.8708286933869707
          1.75 1.695582495781317 1.6770509831248424 1.695582495781317 1.75 1.8200274723201295
          1.8027756377319946 1.8200274723201295 1.8708286933869707 1.9685019685029528 1.9525624189766635 1.9685019685029528
          2.0155644370746373 2.1360009363293826 2.1213203435596424 2.1360009363293826 1.479019945774904 1.4577379737113252
          1.479019945774904 1.541103500742244 1.620185174601965 1.6007810593582121 1.620185174601965 1.6770509831248424
          1.7853571071357126 1.7677669529663689 1.7853571071357126 1.8371173070873836 1.9685019685029528 1.9525624189766635
          1.9685019685029528 2.0155644370746373 1.2747548783981961 1.25 1.2747548783981961 1.346291201783626
          1.4361406616345072 1.4142135623730951 1.4361406616345072 1.5 1.620185174601965 1.6007810593582121
          1.620185174601965 1.6770509831248424 1.8200274723201295 1.8027756377319946 1.8200274723201295 1.8708286933869707
          1.0897247358851685 1.0606601717798212 1.0897247358851685 1.1726039399558574 1.2747548783981961 1.25
          1.2747548783981961 1.346291201783626 1.479019945774904 1.4577379737113252 1.479019945774904 1.541103500742244
          1.695582495781317 1.6770509831248424 1.695582495781317 1.75 0.9354143466934853 0.9013878188659973
          0.9354143466934853 1.0307764064044151 1.14564392373896 1.118033988749895 1.14564392373896 1.224744871391589
          1.3693063937629153 1.346291201783626 1.3693063937629153 1.4361406616345072 1.6007810593582121 1.5811388300841898
          1.6007810593582121 1.8371173070873836 1.9525624189766635 2.091650066335189 2.25 1.9525624189766635
          2.0615528128088303 2.1937410968480306 2.345207879911715 2.091650066335189 2.1937410968480306 2.318404623873926
          2.462214450449026 2.25 2.345207879911715 2.462214450449026 1.6393596310755 1.7677669529663689
          1.920286436967152 2.091650066335189 1.7677669529663689 1.8874586088176875 2.03100960115899 2.1937410968480306
          1.920286436967152 2.03100960115899 2.165063509461097 2.318404623873926 2.091650066335189 2.1937410968480306
          2.318404623873926 2.462214450449026 1.4577379737113252 1.6007810593582121 1.7677669529663689 1.9525624189766635
          1.6007810593582121 1.7320508075688772 1.8874586088176875 2.0615528128088303 1.7677669529663689 1.8874586088176875
          2.03100960115899 2.1937410968480306 1.9525624189766635 2.0615528128088303 2.1937410968480306 2.345207879911715
          1.299038105676658 1.4577379737113252 1.6393596310755 1.8371173070873836 1.4577379737113252 1.6007810593582121
          1.7677669529663689 1.9525624189766635 1.6393596310755 1.7677669529663689 1.920286436967152 2.091650066335189
          1.8371173070873836 1.9525624189766635 2.091650066335189 2.25 1.1726039399558574 1.346291201783626
          1.541103500742244 1.75 1.346291201783626 1.5 1.6770509831248424 1.8708286933869707
          1.541103500742244 1.6770509831248424 1.8371173070873836 2.0155644370746373 1.75 1.8708286933869707
          2.0155644370746373 2.1360009363293826 1.9685019685029528 1.8200274723201295 1.695582495781317 1.6007810593582121
          1.9685019685029528 1.7853571071357126 1.620185174601965 1.479019945774904 1.3693063937629153 1.8200274723201295
          1.620185174601965 1.4361406616345072 1.2747548783981961 1.14564392373896 1.695582495781317 1.479019945774904
          1.2747548783981961 1.0897247358851685 0.9354143466934853 1.6007810593582121 1.3693063937629153 1.14564392373896
          0.9354143466934853 0.75 2.1213203435596424 1.9525624189766635 1.8027756377319946 1.6770509831248424
          1.5811388300841898 1.9525624189766635 1.7677669529663689 1.6007810593582121 1.4577379737113252 1.346291201783626
          1.8027756377319946 1.6007810593582121 1.4142135623730951 1.25 1.118033988749895 1.6770509831248424
          1.4577379737113252 1.25 1.0606601717798212 0.9013878188659973 1.5811388300841898 1.346291201783626
          1.118033988749895 0.9013878188659973 0.7071067811865476 2.1360009363293826 1.9685019685029528 1.8200274723201295
          1.695582495781317 1.6007810593582121 1.9685019685029528 1.7853571071357126 1.620185174601965 1.479019945774904
          1.3693063937629153 1.8200274723201295 1.620185174601965 1.4361406616345072 1.2747548783981961 1.14564392373896
          1.695582495781317 1.479019945774904 1.2747548783981961 1.0897247358851685 0.9354143466934853 1.6007810593582121
          1.3693063937629153 1.14564392373896 0.9354143466934853 0.75 2.0155644370746373 1.8708286933869707
          1.75 2.0155644370746373 1.8371173070873836 1.6770509831248424 1.541103500742244 1.4361406616345072
          1.8708286933869707 1.6770509831248424 1.5 1.346291201783626 1.224744871391589 1.75
          1.541103500742244 1.346291201783626 1.1726039399558574 1.0307764064044151 1.4361406616345072 1.224744871391589
          1.0307764064044151 1.541103500742244 1.5206906325745548 1.541103500742244 1.6007810593582121 1.299038105676658
          1.2747548783981961 1.299038105676658 1.3693063937629153 1.0606601717798212 1.0307764064044151 1.0606601717798212
          1.14564392373896 0.82915619758885 0.7905694150420949 0.82915619758885 0.9354143466934853 0.6123724356957945
          0.5590169943749475 0.6123724356957945 0.75 1.5206906325745548 1.5 1.5206906325745548
          1.5811388300841898 1.2747548783981961 1.25 1.2747548783981961 1.346291201783626 1.0307764064044151
          1 1.0307764064044151 1.118033988749895 0.7905694150420949 0.75 0.7905694150420949
          0.9013878188659973 0.5590169943749475 0.5 0.5590169943749475 0.7071067811865476 1.541103500742244
          1.5206906325745548 1.541103500742244 1.6007810593582121 1.299038105676658 1.2747548783981961 1.299038105676658
          1.3693063937629153 1.0606601717798212 1.0307764064044151 1.0606601717798212 1.14564392373896 0.82915619758885
          0.7905694150420949 0.82915619758885 0.9354143466934853 0.6123724356957945 0.5590169943749475 0.6123724356957945
          0.75 1.6007810593582121 1.5811388300841898 1.6007810593582121 1.3693063937629153 1.346291201783626
          1.3693063937629153 1.4361406616345072 1.14564392373896 1.118033988749895 1.14564392373896 1.224744871391589
          0.9354143466934853 0.9013878188659973 0.9354143466934853 1.0307764064044151 0.75 0.7071067811865476
          0.75 1.695582495781317 1.8200274723201295 1.9685019685029528 2.1360009363293826 1.479019945774904
          1.620185174601965 1.7853571071357126 1.9685019685029528 1.2747548783981961 1.4361406616345072 1.620185174601965
          1.8200274723201295 1.0897247358851685 1.2747548783981961 1.479019945774904 1.695582495781317 0.9354143466934853
          1.14564392373896 1.3693063937629153 1.6007810593582121 1.6770509831248424 1.8027756377319946 1.9525624189766635
          2.1213203435596424 1.4577379737113252 1.6007810593582121 1.7677669529663689 1.9525624189766635 1.25
          1.4142135623730951 1.6007810593582121 1.8027756377319946 1.0606601717798212 1.25 1.4577379737113252
          1.6770509831248424 0.9013878188659973 1.118033988749895 1.346291201783626 1.5811388300841898 1.695582495781317
          1.8200274723201295 1.9685019685029528 2.1360009363293826 1.479019945774904 1.620185174601965 1.7853571071357126
          1.9685019685029528 1.2747548783981961 1.4361406616345072 1.620185174601965 1.8200274723201295 1.0897247358851685
          1.2747548783981961 1.479019945774904 1.695582495781317 0.9354143466934853 1.14564392373896 1.3693063937629153
          1.6007810593582121 1.75 1.8708286933869707 2.0155644370746373 1.541103500742244 1.6770509831248424
          1.8371173070873836 2.0155644370746373 1.346291201783626 1.5 1.6770509831248424 1.8708286933869707
          1.1726039399558574 1.346291201783626 1.541103500742244 1.75 1.0307764064044151 1.224744871391589
          1.4361406616345072 1.541103500742244 1.299038105676658 1.0606601717798212 0.82915619758885 0.6123724356957945
          1.5206906325745548 1.2747548783981961 1.0307764064044151 0.7905694150420949 0.5590169943749475 1.541103500742244
          1.299038105676658 1.0606601717798212 0.82915619758885 0.6123724356957945 1.6007810593582121 1.3693063937629153
          1.14564392373896 0.9354143466934853 0.75 1.5206906325745548 1.2747548783981961 1.0307764064044151
          0.7905694150420949 0.5590169943749475 1.5 1.25 1 0.75
          0.5 1.5206906325745548 1.2747548783981961 1.0307764064044151 0.7905694150420949 0.5590169943749475
          1.5811388300841898 1.346291201783626 1.118033988749895 0.9013878188659973 0.7071067811865476 1.541103500742244
          1.299038105676658 1.0606601717798212 0.82915619758885 0.6123724356957945 1.5206906325745548 1.2747548783981961
          1.0307764064044151 0.7905694150420949 0.5590169943749475 1.541103500742244 1.299038105676658 1.0606601717798212
          0.82915619758885 0.6123724356957945 1.6007810593582121 1.3693063937629153 1.14564392373896 0.9354143466934853
          0.75 1.6007810593582121 1.3693063937629153 1.14564392373896 0.9354143466934853 0.75
          1.5811388300841898 1.346291201783626 1.118033988749895 0.9013878188659973 0.7071067811865476 1.6007810593582121
          1.3693063937629153 1.14564392373896 0.9354143466934853 0.75 1.4361406616345072 1.224744871391589
          1.0307764064044151 0.4330127018922193 0.3535533905932738 0.4330127018922193 0.6123724356957945 0.3535533905932738
          0.25 0.3535533905932738 0.5590169943749475 0.4330127018922193 0.3535533905932738 0.4330127018922193
          0.6123724356957945 0.6123724356957945 0.5590169943749475 0.6123724356957945 0.75 0.3535533905932738
          0.25 0.3535533905932738 0.5590169943749475 0.25 0 0.25
          0.5 0.3535533905932738 0.25 0.3535533905932738 0.5590169943749475 0.5590169943749475
          0.5 0.5590169943749475 0.7071067811865476 0.4330127018922193 0.3535533905932738 0.4330127018922193
          0.6123724356957945 0.3535533905932738 0.25 0.3535533905932738 0.5590169943749475 0.4330127018922193
          0.3535533905932738 0.4330127018922193 0.6123724356957945 0.6123724356957945 0.5590169943749475 0.6123724356957945
          0.75 0.6123724356957945 0.5590169943749475 0.6123724356957945 0.75 0.5590169943749475
          0.5 0.5590169943749475 0.7071067811865476 0.6123724356957945 0.5590169943749475 0.6123724356957945
          0.75 0.75 0.7071067811865476 0.75 0.82915619758885 1.0606601717798212
          1.299038105676658 1.541103500742244 0.7905694150420949 1.0307764064044151 1.2747548783981961 1.5206906325745548
          0.82915619758885 1.0606601717798212 1.299038105676658 1.541103500742244 0.9354143466934853 1.14564392373896
          1.3693063937629153 1.6007810593582121 0.7905694150420949 1.0307764064044151 1.2747548783981961 1.5206906325745548
          0.75 1 1.25 1.5 0.7905694150420949 1.0307764064044151
          1.2747548783981961 1.5206906325745548 0.9013878188659973 1.118033988749895 1.346291201783626 1.5811388300841898
          0.82915619758885 1.0606601717798212 1.299038105676658 1.541103500742244 0.7905694150420949 1.0307764064044151
          1.2747548783981961 1.5206906325745548 0.82915619758885 1.0606601717798212 1.299038105676658 1.541103500742244
          0.9354143466934853 1.14564392373896 1.3693063937629153 1.6007810593582121 0.9354143466934853 1.14564392373896
          1.3693063937629153 1.6007810593582121 0.9013878188659973 1.118033988749895 1.346291201783626 1.5811388300841898
          0.9354143466934853 1.14564392373896 1.3693063937629153 1.6007810593582121 1.0307764064044151 1.224744871391589
          1.4361406616345072 1.695582495781317 1.479019945774904 1.2747548783981961 1.0897247358851685 0.9354143466934853
          1.8200274723201295 1.620185174601965 1.4361406616345072 1.2747548783981961 1.14564392373896 1.9685019685029528
          1.7853571071357126 1.620185174601965 1.479019945774904 1.3693063937629153 2.1360009363293826 1.9685019685029528
          1.8200274723201295 1.695582495781317 1.6007810593582121 1.6770509831248424 1.4577379737113252 1.25
          1.0606601717798212 0.9013878188659973 1.8027756377319946 1.6007810593582121 1.4142135623730951 1.25
          1.118033988749895 1.9525624189766635 1.7677669529663689 1.6007810593582121 1.4577379737113252 1.346291201783626
          2.1213203435596424 1.9525624189766635 1.8027756377319946 1.6770509831248424 1.5811388300841898 1.695582495781317
          1.479019945774904 1.2747548783981961 1.0897247358851685 0.9354143466934853 1.8200274723201295 1.620185174601965
          1.4361406616345072 1.2747548783981961 1.14564392373896 1.9685019685029528 1.7853571071357126 1.620185174601965
          1.479019945774904 1.3693063937629153 2.1360009363293826 1.9685019685029528 1.8200274723201295 1.695582495781317
          1.6007810593582121 1.75 1.541103500742244 1.346291201783626 1.1726039399558574 1.0307764064044151
          1.8708286933869707 1.6770509831248424 1.5 1.346291201783626 1.224744871391589 2.0155644370746373
          1.8371173070873836 1.6770509831248424 1.541103500742244 1.4361406616345072 2.0155644370746373 1.8708286933869707
          1.75 0.82915619758885 0.7905694150420949 0.82915619758885 0.9354143466934853 1.0606601717798212
          1.0307764064044151 1.0606601717798212 1.14564392373896 1.299038105676658 1.2747548783981961 1.299038105676658
          1.3693063937629153 1.541103500742244 1.5206906325745548 1.541103500742244 1.6007810593582121 0.7905694150420949
          0.75 0.7905694150420949 0.9013878188659973 1.0307764064044151 1 1.0307764064044151
          1.118033988749895 1.2747548783981961 1.25 1.2747548783981961 1.346291201783626 1.5206906325745548
          1.5 1.5206906325745548 1.5811388300841898 0.82915619758885 0.7905694150420949 0.82915619758885
          0.9354143466934853 1.0606601717798212 1.0307764064044151 1.0606601717798212 1.14564392373896 1.299038105676658
          1.2747548783981961 1.299038105676658 1.3693063937629153 1.541103500742244 1.5206906325745548 1.541103500742244
          1.6007810593582121 0.9354143466934853 0.9013878188659973 0.9354143466934853 1.0307764064044151 1.14564392373896
          1.118033988749895 1.14564392373896 1.224744871391589 1.3693063937629153 1.346291201783626 1.3693063937629153
          1.4361406616345072 1.6007810593582121 1.5811388300841898 1.6007810593582121 1.0897247358851685 1.2747548783981961
          1.479019945774904 1.695582495781317 1.2747548783981961 1.4361406616345072 1.620185174601965 1.8200274723201295
          1.479019945774904 1.620185174601965 1.7853571071357126 1.9685019685029528 1.695582495781317 1.8200274723201295
          1.9685019685029528 2.1360009363293826 1.0606601717798212 1.25 1.4577379737113252 1.6770509831248424
          1.25 1.4142135623730951 1.6007810593582121 1.8027756377319946 1.4577379737113252 1.6007810593582121
          1.7677669529663689 1.9525624189766635 1.6770509831248424 1.8027756377319946 1.9525624189766635 2.1213203435596424
          1.0897247358851685 1.2747548783981961 1.479019945774904 1.695582495781317 1.2747548783981961 1.4361406616345072
          1.620185174601965 1.8200274723201295 1.479019945774904 1.620185174601965 1.7853571071357126 1.9685019685029528
          1.695582495781317 1.8200274723201295 1.9685019685029528 2.1360009363293826 1.1726039399558574 1.346291201783626
          1.541103500742244 1.75 1.346291201783626 1.5 1.6770509831248424 1.8708286933869707
          1.541103500742244 1.6770509831248424 1.8371173070873836 2.0155644370746373 1.75 1.8708286933869707
          2.0155644370746373 2.25 2.091650066335189 1.9525624189766635 1.8371173070873836 1.75
          2.091650066335189 1.920286436967152 1.7677669529663689 1.6393596310755 1.541103500742244 1.9525624189766635
          1.7677669529663689 1.6007810593582121 1.4577379737113252 1.346291201783626 1.8371173070873836 1.6393596310755
          1.4577379737113252 1.299038105676658 1.1726039399558574 1.75 1.541103500742244 1.346291201783626