<VTKFile type="UnstructuredGrid" version="1.0" byte_order="LittleEndian" header_type="UInt64">
  <UnstructuredGrid>
    <Piece NumberOfPoints="205" NumberOfCells="9">
      <PointData>
        <DataArray type="Float64" Name="DistanceToCenter" format="ascii" RangeMin="0" RangeMax="2.1213203435596424">
          2.1213203435596424 1.5811388300841898 1.5811388300841898 2.1213203435596424 1.5811388300841898 0.7071067811865476
          0.7071067811865476 1.5811388300841898 1.5811388300841898 0.7071067811865476 0.7071067811865476 1.5811388300841898
          2.1213203435596424 1.5811388300841898 1.5811388300841898 2.1213203435596424 1.9525624189766635 1.8027756377319946
          1.6770509831248424 1.9525624189766635 1.7677669529663689 1.6007810593582121 1.4577379737113252 1.346291201783626
          1.8027756377319946 1.6007810593582121 1.4142135623730951 1.25 1.118033988749895 1.6770509831248424
          1.4577379737113252 1.25 1.0606601717798212 0.9013878188659973 1.346291201783626 1.118033988749895
          0.9013878188659973 1.5206906325745548 1.5 1.5206906325745548 1.346291201783626 1.2747548783981961
          1.25 1.2747548783981961 1.346291201783626 1.118033988749895 1.0307764064044151 1
          1.0307764064044151 1.118033988749895 0.9013878188659973 0.7905694150420949 0.75 0.7905694150420949
          0.9013878188659973 0.5590169943749475 0.5 0.5590169943749475 1.6770509831248424 1.8027756377319946
          1.9525624189766635 1.346291201783626 1.4577379737113252 1.6007810593582121 1.7677669529663689 1.9525624189766635
          1.118033988749895 1.25 1.4142135623730951 1.6007810593582121 1.8027756377319946 0.9013878188659973
          1.0606601717798212 1.25 1.4577379737113252 1.6770509831248424 0.9013878188659973 1.118033988749895
          1.346291201783626 1.346291201783626 1.118033988749895 0.9013878188659973 1.5206906325745548 1.2747548783981961
          1.0307764064044151 0.7905694150420949 0.5590169943749475 1.5 1.25 1
          0.75 0.5 1.5206906325745548 1.2747548783981961 1.0307764064044151 0.7905694150420949
          0.5590169943749475 1.346291201783626 1.118033988749895 0.9013878188659973 0.5590169943749475 0.5
          0.5590169943749475 0.5590169943749475 0.3535533905932738 0.25 0.3535533905932738 0.5590169943749475
          0.5 0.25 0 0.25 0.5 0.5590169943749475
          0.3535533905932738 0.25 0.3535533905932738 0.5590169943749475 0.5590169943749475 0.5
          0.5590169943749475 0.9013878188659973 1.118033988749895 1.346291201783626 0.5590169943749475 0.7905694150420949
          1.0307764064044151 1.2747548783981961 1.5206906325745548 0.5 0.75 1
          1.25 1.5 0.5590169943749475 0.7905694150420949 1.0307764064044151 1.2747548783981961
          1.5206906325745548 0.9013878188659973 1.118033988749895 1.346291201783626 1.346291201783626 1.118033988749895
          0.9013878188659973 1.6770509831248424 1.4577379737113252 1.25 1.0606601717798212 0.9013878188659973
          1.8027756377319946 1.6007810593582121 1.4142135623730951 1.25 1.118033988749895 1.9525624189766635
          1.7677669529663689 1.6007810593582121 1.4577379737113252 1.346291201783626 1.9525624189766635 1.8027756377319946
          1.6770509831248424 0.5590169943749475 0.5 0.5590169943749475 0.9013878188659973 0.7905694150420949
          0.75 0.7905694150420949 0.9013878188659973 1.118033988749895 1.0307764064044151 1
          1.0307764064044151 1.118033988749895 1.346291201783626 1.2747548783981961 1.25 1.2747548783981961
          1.346291201783626 1.5206906325745548 1.5 1.5206906325745548 0.9013878188659973 1.118033988749895
          1.346291201783626 0.9013878188659973 1.0606601717798212 1.25 1.4577379737113252 1.6770509831248424
          1.118033988749895 1.25 1.4142135623730951 1.6007810593582121 1.8027756377319946 1.346291201783626
          1.4577379737113252 1.6007810593582121 1.7677669529663689 1.9525624189766635 1.6770509831248424 1.8027756377319946
          1.9525624189766635
        </DataArray>
        <DataArray type="Float64" Name="Polynomial" format="ascii" RangeMin="1" RangeMax="7">
          1 2 3 4 2 3
          4 5 3 4 5 6
          4 5 6 7 1 1
          1 1 1 1 1 2
          1 1 1 1 2 1
          1 1 1 2 2 2
          2 2 2 2 2 2
          2 2 3 2 2 2
          2 3 2 2 2 2
          3 3 3 3 3 3
          3 3 3 3 3 4
          3 3 3 3 4 3
          3 3 3 4 4 4
          4 2 2 2 2 2
          2 2 3 2 2 2
          2 3 2 2 2 2
          3 3 3 3 3 3
          3 3 3 3 3 4
          3 3 3 3 4 3
          3 3 3 4 4 4
          4 4 4 4 4 4
          4 4 5 4 4 4
          4 5 4 4 4 4
          5 5 5 5 3 3
          3 3 3 3 3 4
          3 3 3 3 4 3
          3 3 3 4 4 4
          4 4 4 4 4 4
          4 4 5 4 4 4
          4 5 4 4 4 4
          5 5 5 5 5 5
          5 5 5 5 5 6
          5 5 5 5 6 5
          5 5 5 6 6 6
          6
        </DataArray>
      </PointData>
      <CellData>
      </CellData>
      <Points>
        <DataArray type="Float64" Name="Points" NumberOfComponents="3" format="ascii" RangeMin="0" RangeMax="4.242640687119285">
          0 0 0 1 0 0
          2 0 0 3 0 0
          0 1 0 1 1 0
          2 1 0 3 1 0
          0 2 0 1 2 0
          2 2 0 3 2 0
          0 3 0 1 3 0
          2 3 0 3 3 0
          0.25 0 0 0.5 0 0
          0.75 0 0 0 0.25 0
          0.25 0.25 0 0.5 0.25 0
          0.75 0.25 0 1 0.25 0
          0 0.5 0 0.25 0.5 0
          0.5 0.5 0 0.75 0.5 0
          1 0.5 0 0 0.75 0
          0.25 0.75 0 0.5 0.75 0
          0.75 0.75 0 1 0.75 0
          0.25 1 0 0.5 1 0
          0.75 1 0 1.25 0 0
          1.5 0 0 1.75 0 0
          1 0.25 0 1.25 0.25 0
          1.5 0.25 0 1.75 0.25 0
          2 0.25 0 1 0.5 0
          1.25 0.5 0 1.5 0.5 0
          1.75 0.5 0 2 0.5 0
          1 0.75 0 1.25 0.75 0
          1.5 0.75 0 1.75 0.75 0
          2 0.75 0 1.25 1 0
          1.5 1 0 1.75 1 0
          2.25 0 0 2.5 0 0
          2.75 0 0 2 0.25 0
          2.25 0.25 0 2.5 0.25 0
          2.75 0.25 0 3 0.25 0
          2 0.5 0 2.25 0.5 0
          2.5 0.5 0 2.75 0.5 0
          3 0.5 0 2 0.75 0
          2.25 0.75 0 2.5 0.75 0
          2.75 0.75 0 3 0.75 0
          2.25 1 0 2.5 1 0
          2.75 1 0 0.25 1 0
          0.5 1 0 0.75 1 0
          0 1.25 0 0.25 1.25 0
          0.5 1.25 0 0.75 1.25 0
          1 1.25 0 0 1.5 0
          0.25 1.5 0 0.5 1.5 0
          0.75 1.5 0 1 1.5 0
          0 1.75 0 0.25 1.75 0
          0.5 1.75 0 0.75 1.75 0
          1 1.75 0 0.25 2 0
          0.5 2 0 0.75 2 0
          1.25 1 0 1.5 1 0
          1.75 1 0 1 1.25 0
          1.25 1.25 0 1.5 1.25 0
          1.75 1.25 0 2 1.25 0
          1 1.5 0 1.25 1.5 0
          1.5 1.5 0 1.75 1.5 0
          2 1.5 0 1 1.75 0
          1.25 1.75 0 1.5 1.75 0
          1.75 1.75 0 2 1.75 0
          1.25 2 0 1.5 2 0
          1.75 2 0 2.25 1 0
          2.5 1 0 2.75 1 0
          2 1.25 0 2.25 1.25 0
          2.5 1.25 0 2.75 1.25 0
          3 1.25 0 2 1.5 0
          2.25 1.5 0 2.5 1.5 0
          2.75 1.5 0 3 1.5 0
          2 1.75 0 2.25 1.75 0
          2.5 1.75 0 2.75 1.75 0
          3 1.75 0 2.25 2 0
          2.5 2 0 2.75 2 0
          0.25 2 0 0.5 2 0
          0.75 2 0 0 2.25 0
          0.25 2.25 0 0.5 2.25 0
          0.75 2.25 0 1 2.25 0
          0 2.5 0 0.25 2.5 0
          0.5 2.5 0 0.75 2.5 0
          1 2.5 0 0 2.75 0
          0.25 2.75 0 0.5 2.75 0
          0.75 2.75 0 1 2.75 0
          0.25 3 0 0.5 3 0
          0.75 3 0 1.25 2 0
          1.5 2 0 1.75 2 0
          1 2.25 0 1.25 2.25 0
          1.5 2.25 0 1.75 2.25 0
          2 2.25 0 1 2.5 0
          1.25 2.5 0 1.5 2.5 0
          1.75 2.5 0 2 2.5 0
          1 2.75 0 1.25 2.75 0
          1.5 2.75 0 1.75 2.75 0
          2 2.75 0 1.25 3 0
          1.5 3 0 1.75 3 0
          2.25 2 0 2.5 2 0
          2.75 2 0 2 2.25 0
          2.25 2.25 0 2.5 2.25 0
          2.75 2.25 0 3 2.25 0
          2 2.5 0 2.25 2.5 0
          2.5 2.5 0 2.75 2.5 0
          3 2.5 0 2 2.75 0
          2.25 2.75 0 2.5 2.75 0
          2.75 2.75 0 3 2.75 0
          2.25 3 0 2.5 3 0
          2.75 3 0
          <InformationKey name="L2_NORM_FINITE_RANGE" location="vtkDataArray" length="2">
            <Value index="0">
              0
            </Value>
            <Value index="1">
              4.2426406871
            </Value>
          </InformationKey>
          <InformationKey name="L2_NORM_RANGE" location="vtkDataArray" length="2">
            <Value index="0">
              0
            </Value>
            <Value index="1">
              4.2426406871
            </Value>
          </InformationKey>
        </DataArray>
      </Points>
      <Cells>
        <DataArray type="Int64" Name="connectivity" format="ascii" RangeMin="0" RangeMax="204">
          0 1 5 4 16 17
          18 23 28 33 34 35
          36 19 24 29 20 21
          22 25 26 27 30 31
          32 1 2 6 5 37
          38 39 44 49 54 55
          56 57 40 45 50 41
          42 43 46 47 48 51
          52 53 2 3 7 6
          58 59 60 65 70 75
          76 77 78 61 66 71
          62 63 64 67 68 69
          72 73 74 4 5 9
          8 79 80 81 86 91
          96 97 98 99 82 87
          92 83 84 85 88 89
          90 93 94 95 5 6
          10 9 100 101 102 107
          112 117 118 119 120 103
          108 113 104 105 106 109
          110 111 114 115 116 6
          7 11 10 121 122 123
          128 133 138 139 140 141
          124 129 134 125 126 127
          130 131 132 135 136 137
          8 9 13 12 142 143
          144 149 154 159 160 161
          162 145 150 155 146 147
          148 151 152 153 156 157
          158 9 10 14 13 163
          164 165 170 175 180 181
          182 183 166 171 176 167
          168 169 172 173 174 177
          178 179 10 11 15 14
          184 185 186 191 196 201
          202 203 204 187 192 197
          188 189 190 193 194 195
          198 199 200
        </DataArray>
        <DataArray type="Int64" Name="offsets" format="ascii" RangeMin="25" RangeMax="225">
          25 50 75 100 125 150
          175 200 225
        </DataArray>
        <DataArray type="UInt8" Name="types" format="ascii" RangeMin="70" RangeMax="70">
          70 70 70 70 70 70
          70 70 70
        </DataArray>
      </Cells>
    </Piece>
  </UnstructuredGrid>
</VTKFile>
