<VTKFile type="UnstructuredGrid" version="1.0" byte_order="LittleEndian" header_type="UInt64">
  <UnstructuredGrid>
    <Piece NumberOfPoints="124" NumberOfCells="9">
      <PointData>
        <DataArray type="Float64" Name="DistanceToCenter" format="ascii" RangeMin="0.23570226039551562" RangeMax="2.1213203435596424">
          2.1213203435596424 1.5811388300841898 1.5811388300841898 2.1213203435596424 1.5811388300841898 0.7071067811865476
          0.7071067811865476 1.5811388300841898 1.5811388300841898 0.7071067811865476 0.7071067811865476 1.5811388300841898
          2.1213203435596424 1.5811388300841898 1.5811388300841898 2.1213203435596424 1.90029237516523 1.7159383568311668
          1.90029237516523 1.6499158227686108 1.4337208778404378 1.2692955176439848 1.7159383568311668 1.4337208778404378
          1.1785113019775793 0.9718253158075502 1.2692955176439848 0.9718253158075502 1.509230856356236 1.509230856356236
          1.2692955176439848 1.178511301977579 1.1785113019775793 1.2692955176439848 0.9718253158075502 0.8498365855987974
          0.8498365855987975 0.9718253158075502 0.5270462766947298 0.5270462766947298 1.7159383568311668 1.90029237516523
          1.2692955176439848 1.4337208778404378 1.6499158227686113 1.90029237516523 0.9718253158075502 1.1785113019775793
          1.433720877840438 1.7159383568311668 0.9718253158075502 1.269295517643985 1.2692955176439848 0.9718253158075502
          1.509230856356236 1.1785113019775793 0.8498365855987975 0.5270462766947298 1.509230856356236 1.1785113019775793
          0.8498365855987975 0.5270462766947298 1.2692955176439848 0.9718253158075502 0.5270462766947298 0.5270462766947298
          0.5270462766947298 0.23570226039551562 0.23570226039551562 0.5270462766947298 0.5270462766947298 0.23570226039551562
          0.23570226039551562 0.5270462766947298 0.5270462766947298 0.5270462766947298 0.9718253158075502 1.269295517643985
          0.5270462766947298 0.8498365855987975 1.1785113019775795 1.509230856356236 0.5270462766947298 0.8498365855987975
          1.1785113019775795 1.509230856356236 0.9718253158075502 1.269295517643985 1.2692955176439848 0.9718253158075502
          1.7159383568311668 1.433720877840438 1.1785113019775795 0.9718253158075502 1.90029237516523 1.6499158227686113
          1.433720877840438 1.269295517643985 1.90029237516523 1.7159383568311668 0.5270462766947298 0.5270462766947298
          0.9718253158075502 0.8498365855987975 0.8498365855987975 0.9718253158075502 1.269295517643985 1.1785113019775795
          1.1785113019775795 1.269295517643985 1.509230856356236 1.509230856356236 0.9718253158075502 1.269295517643985
          0.9718253158075502 1.1785113019775795 1.433720877840438 1.7159383568311668 1.269295517643985 1.433720877840438
          1.6499158227686113 1.90029237516523 1.7159383568311668 1.90029237516523
        </DataArray>
        <DataArray type="Float64" Name="Polynomial" format="ascii" RangeMin="1" RangeMax="7">
          1 2 3 4 2 3
          4 5 3 4 5 6
          4 5 6 7 1 1
          1 1 1 2 1 1
          1 2 2 2 2 2
          2 2 2 3 2 2
          2 3 3 3 3 3
          3 3 3 4 3 3
          3 4 4 4 2 2
          2 2 2 3 2 2
          2 3 3 3 3 3
          3 3 3 4 3 3
          3 4 4 4 4 4
          4 4 4 5 4 4
          4 5 5 5 3 3
          3 3 3 4 3 3
          3 4 4 4 4 4
          4 4 4 5 4 4
          4 5 5 5 5 5
          5 5 5 6 5 5
          5 6 6 6
        </DataArray>
      </PointData>
      <CellData>
      </CellData>
      <Points>
        <DataArray type="Float64" Name="Points" NumberOfComponents="3" format="ascii" RangeMin="0" RangeMax="4.242640687119285">
          0 0 0 1 0 0
          2 0 0 3 0 0
          0 1 0 1 1 0
          2 1 0 3 1 0
          0 2 0 1 2 0
          2 2 0 3 2 0
          0 3 0 1 3 0
          2 3 0 3 3 0
          0.3333333333333333 0 0 0.6666666666666666 0 0
          0 0.3333333333333333 0 0.3333333333333333 0.33333333333333337 0
          0.6666666666666666 0.3333333333333333 0 1 0.3333333333333333 0
          0 0.6666666666666666 0 0.3333333333333333 0.6666666666666667 0
          0.6666666666666666 0.6666666666666666 0 1 0.6666666666666666 0
          0.3333333333333333 1 0 0.6666666666666666 1 0
          1.3333333333333335 0 0 1.6666666666666665 0 0
          1 0.3333333333333333 0 1.3333333333333335 0.33333333333333337 0
          1.6666666666666665 0.3333333333333333 0 2 0.3333333333333333 0
          1 0.6666666666666666 0 1.3333333333333335 0.6666666666666667 0
          1.6666666666666665 0.6666666666666666 0 2 0.6666666666666666 0
          1.3333333333333335 1 0 1.6666666666666665 1 0
          2.3333333333333335 0 0 2.666666666666667 0 0
          2 0.3333333333333333 0 2.3333333333333335 0.33333333333333337 0
          2.666666666666667 0.3333333333333333 0 3 0.3333333333333333 0
          2 0.6666666666666666 0 2.3333333333333335 0.6666666666666667 0
          2.666666666666667 0.6666666666666666 0 3 0.6666666666666666 0
          2.3333333333333335 1 0 2.666666666666667 1 0
          0.3333333333333333 1 0 0.6666666666666666 1 0
          0 1.3333333333333335 0 0.3333333333333333 1.3333333333333335 0
          0.6666666666666666 1.3333333333333335 0 1 1.3333333333333335 0
          0 1.6666666666666665 0 0.3333333333333333 1.6666666666666665 0
          0.6666666666666666 1.6666666666666665 0 1 1.6666666666666665 0
          0.3333333333333333 2 0 0.6666666666666666 2 0
          1.3333333333333335 1 0 1.6666666666666665 1 0
          1 1.3333333333333335 0 1.3333333333333335 1.3333333333333335 0
          1.6666666666666665 1.3333333333333335 0 2 1.3333333333333335 0
          1 1.6666666666666665 0 1.3333333333333335 1.6666666666666665 0
          1.6666666666666665 1.6666666666666665 0 2 1.6666666666666665 0
          1.3333333333333335 2 0 1.6666666666666665 2 0
          2.3333333333333335 1 0 2.666666666666667 1 0
          2 1.3333333333333335 0 2.3333333333333335 1.3333333333333335 0
          2.666666666666667 1.3333333333333335 0 3 1.3333333333333335 0
          2 1.6666666666666665 0 2.3333333333333335 1.6666666666666665 0
          2.666666666666667 1.6666666666666665 0 3 1.6666666666666665 0
          2.3333333333333335 2 0 2.666666666666667 2 0
          0.3333333333333333 2 0 0.6666666666666666 2 0
          0 2.3333333333333335 0 0.3333333333333333 2.3333333333333335 0
          0.6666666666666666 2.3333333333333335 0 1 2.3333333333333335 0
          0 2.666666666666667 0 0.3333333333333333 2.666666666666667 0
          0.6666666666666666 2.666666666666667 0 1 2.666666666666667 0
          0.3333333333333333 3 0 0.6666666666666666 3 0
          1.3333333333333335 2 0 1.6666666666666665 2 0
          1 2.3333333333333335 0 1.3333333333333335 2.3333333333333335 0
          1.6666666666666665 2.3333333333333335 0 2 2.3333333333333335 0
          1 2.666666666666667 0 1.3333333333333335 2.666666666666667 0
          1.6666666666666665 2.666666666666667 0 2 2.666666666666667 0
          1.3333333333333335 3 0 1.6666666666666665 3 0
          2.3333333333333335 2 0 2.666666666666667 2 0
          2 2.3333333333333335 0 2.3333333333333335 2.3333333333333335 0
          2.666666666666667 2.3333333333333335 0 3 2.3333333333333335 0
          2 2.666666666666667 0 2.3333333333333335 2.666666666666667 0
          2.666666666666667 2.666666666666667 0 3 2.666666666666667 0
          2.3333333333333335 3 0 2.666666666666667 3 0
          <InformationKey name="L2_NORM_FINITE_RANGE" location="vtkDataArray" length="2">
            <Value index="0">
              0
            </Value>
            <Value index="1">
              4.2426406871
            </Value>
          </InformationKey>
          <InformationKey name="L2_NORM_RANGE" location="vtkDataArray" length="2">
            <Value index="0">
              0
            </Value>
            <Value index="1">
              4.2426406871
            </Value>
          </InformationKey>
        </DataArray>
      </Points>
      <Cells>
        <DataArray type="Int64" Name="connectivity" format="ascii" RangeMin="0" RangeMax="123">
          0 1 5 4 16 17
          21 25 26 27 18 22
          19 20 23 24 1 2
          6 5 28 29 33 37
          38 39 30 34 31 32
          35 36 2 3 7 6
          40 41 45 49 50 51
          42 46 43 44 47 48
          4 5 9 8 52 53
          57 61 62 63 54 58
          55 56 59 60 5 6
          10 9 64 65 69 73
          74 75 66 70 67 68
          71 72 6 7 11 10
          76 77 81 85 86 87
          78 82 79 80 83 84
          8 9 13 12 88 89
          93 97 98 99 90 94
          91 92 95 96 9 10
          14 13 100 101 105 109
          110 111 102 106 103 104
          107 108 10 11 15 14
          112 113 117 121 122 123
          114 118 115 116 119 120
        </DataArray>
        <DataArray type="Int64" Name="offsets" format="ascii" RangeMin="16" RangeMax="144">
          16 32 48 64 80 96
          112 128 144
        </DataArray>
        <DataArray type="UInt8" Name="types" format="ascii" RangeMin="70" RangeMax="70">
          70 70 70 70 70 70
          70 70 70
        </DataArray>
      </Cells>
    </Piece>
  </UnstructuredGrid>
</VTKFile>
