# vtk DataFile Version 4.2
vtk output
ASCII
DATASET UNSTRUCTURED_GRID
POINTS 11 float
0 0 0 1 0 0 0.1 0 0 
0.2 0 0 0.3 0 0 0.4 0 0 
0.5 0 0 0.6 0 0 0.7 0 0 
0.8 0 0 0.9 0 0 
METADATA
INFORMATION 2
NAME L2_NORM_RANGE LOCATION vtkDataArray
DATA 2 0 1 
NAME L2_NORM_FINITE_RANGE LOCATION vtkDataArray
DATA 2 0 1 

CELLS 1 12
11 0 2 3 4 5 6 7 8 9 10 1 

CELL_TYPES 1
68

POINT_DATA 11
FIELD FieldData 2
DistanceToCenter 1 11 float
0.5 0.5 0.4 0.3 0.2 0.1 0 0.1 0.2 
0.3 0.4 
METADATA
INFORMATION 0

Polynomial 1 11 float
1 2 1 1 1 1 1 1 1 
1 1 
METADATA
INFORMATION 0

