# vtk DataFile Version 4.2
vtk output
ASCII
DATASET UNSTRUCTURED_GRID
POINTS 205 float
0 0 0 1 0 0 0 1 0 
1 1 0 0 0 1 1 0 1 
0 1 1 1 1 1 0.2 0 0 
0.4 0 0 0.6 0 0 0.8 0 0 
0 0.2 0 0.2 0.2 0 0.4 0.2 0 
0.6 0.2 0 0.8 0.2 0 0 0.4 0 
0.2 0.4 0 0.4 0.4 0 0.6 0.4 0 
0 0.6 0 0.2 0.6 0 0.4 0.6 0 
0 0.8 0 0.2 0.8 0 0 0 0.2 
0.2 0 0.2 0.4 0 0.2 0.6 0 0.2 
0.8 0 0.2 0 0.2 0.2 0.2 0.2 0.2 
0.4 0.2 0.2 0.6 0.2 0.2 0 0.4 0.2 
0.2 0.4 0.2 0.4 0.4 0.2 0 0.6 0.2 
0.2 0.6 0.2 0 0.8 0.2 0 0 0.4 
0.2 0 0.4 0.4 0 0.4 0.6 0 0.4 
0 0.2 0.4 0.2 0.2 0.4 0.4 0.2 0.4 
0 0.4 0.4 0.2 0.4 0.4 0 0.6 0.4 
0 0 0.6 0.2 0 0.6 0.4 0 0.6 
0 0.2 0.6 0.2 0.2 0.6 0 0.4 0.6 
0 0 0.8 0.2 0 0.8 0 0.2 0.8 
1 0.2 0 1 0.4 0 1 0.6 0 
1 0.8 0 0.8 0.4 0 0.8 0.6 0 
0.8 0.8 0 0.8 1 0 0.6 0.6 0 
0.6 0.8 0 0.6 1 0 0.4 0.8 0 
0.4 1 0 0.2 0.8 0 0.2 1 0 
1 0.2 0.2 1 0.4 0.2 1 0.6 0.2 
1 0.8 0.2 1 1 0.2 0.8 0.4 0.2 
0.8 0.6 0.2 0.8 0.8 0.2 0.8 1 0.2 
0.6 0.6 0.2 0.6 0.8 0.2 0.6 1 0.2 
0.4 0.8 0.2 0.4 1 0.2 0.2 1 0.2 
1 0.4 0.4 1 0.6 0.4 1 0.8 0.4 
1 1 0.4 0.8 0.6 0.4 0.8 0.8 0.4 
0.8 1 0.4 0.6 0.8 0.4 0.6 1 0.4 
0.4 1 0.4 1 0.6 0.6 1 0.8 0.6 
1 1 0.6 0.8 0.8 0.6 0.8 1 0.6 
0.6 1 0.6 1 0.8 0.8 1 1 0.8 
0.8 1 0.8 0 0.2 1 0 0.4 1 
0 0.6 1 0 0.8 1 0.2 0.2 1 
0.2 0.4 1 0.2 0.6 1 0.2 0.8 1 
0.2 1 1 0.4 0.4 1 0.4 0.6 1 
0.4 0.8 1 0.4 1 1 0.6 0.6 1 
0.6 0.8 1 0.6 1 1 0.8 0.8 1 
0.8 1 1 0 0.4 0.8 0 0.6 0.8 
0 0.8 0.8 0 1 0.8 0.2 0.4 0.8 
0.2 0.6 0.8 0.2 0.8 0.8 0.2 1 0.8 
0.4 0.6 0.8 0.4 0.8 0.8 0.4 1 0.8 
0.6 0.8 0.8 0.6 1 0.8 0 0.6 0.6 
0 0.8 0.6 0 1 0.6 0.2 0.6 0.6 
0.2 0.8 0.6 0.2 1 0.6 0.4 0.8 0.6 
0.4 1 0.6 0 0.8 0.4 0 1 0.4 
0.2 0.8 0.4 0.2 1 0.4 0 0.8 0.2 
0 1 0.2 0.2 1 0.2 0.2 0 1 
0.4 0.2 1 0.6 0.4 1 0.8 0.6 1 
1 0.8 1 0.4 0 1 0.6 0.2 1 
0.8 0.4 1 1 0.6 1 0.6 0 1 
0.8 0.2 1 1 0.4 1 0.8 0 1 
1 0.2 1 0.4 0.2 0.8 0.6 0.4 0.8 
0.8 0.6 0.8 0.4 0 0.8 0.6 0.2 0.8 
0.8 0.4 0.8 1 0.6 0.8 0.6 0 0.8 
0.8 0.2 0.8 1 0.4 0.8 0.8 0 0.8 
1 0.2 0.8 1 0 0.8 0.6 0.2 0.6 
0.8 0.4 0.6 0.6 0 0.6 0.8 0.2 0.6 
1 0.4 0.6 0.8 0 0.6 1 0.2 0.6 
1 0 0.6 0.8 0.2 0.4 0.8 0 0.4 
1 0.2 0.4 1 0 0.4 0.8 0 0.2 
1 0 0.2 0.2 0 0.8 0.2 0.2 1 
-5.55112e-17 0.2 0.8 0.6 0.4 0.4 0.4 0.4 0.6 
0.6 0.6 0.6 0.2 0.4 0.4 0.4 0.6 0.4 
0.2 0.6 0.6 
METADATA
INFORMATION 2
NAME L2_NORM_RANGE LOCATION vtkDataArray
DATA 2 0 1.73205 
NAME L2_NORM_FINITE_RANGE LOCATION vtkDataArray
DATA 2 0 1.73205 

CELLS 5 285
56 0 1 2 4 8 9 10 11 16 20 23 25 24 21 17 12 26 41 51 57 30 44 53 58 40 50 56 59 27 29 52 28 43 42 39 55 34 49 47 37 31 54 38 45 48 35 13 22 15 18 19 14 32 33 36 46 
56 1 3 2 7 60 61 62 63 67 70 72 74 73 23 20 16 75 90 100 106 79 93 102 107 89 99 105 108 76 78 101 77 92 91 88 104 83 98 96 86 80 103 87 94 97 84 64 71 66 68 69 65 81 82 85 95 
56 4 6 7 2 109 110 111 112 117 121 124 126 125 122 118 113 59 56 50 152 130 142 149 153 108 105 99 154 127 129 148 128 141 140 139 151 134 147 145 137 131 150 138 143 146 135 114 123 116 119 120 115 132 133 136 144 
56 4 7 5 1 113 118 122 125 159 163 166 168 167 164 160 155 58 53 44 194 106 100 90 75 181 189 193 195 169 171 190 170 183 182 180 192 175 188 186 178 172 191 179 184 187 176 156 165 158 161 162 157 173 174 177 185 
56 1 4 7 2 30 44 53 196 197 118 122 125 106 100 90 75 16 20 23 73 198 56 50 40 108 105 99 154 34 55 39 47 202 37 138 150 131 146 204 135 80 87 103 84 97 94 190 171 169 183 170 182 199 200 201 203 

CELL_TYPES 5
71
71
71
71
71

POINT_DATA 205
FIELD FieldData 2
DistanceToCenter 1 205 float
0.866025 0.866025 0.866025 0.866025 0.866025 0.866025 0.866025 0.866025 0.768115 
0.714143 0.714143 0.768115 0.768115 0.655744 0.591608 0.591608 0.655744 0.714143 
0.591608 0.519615 0.519615 0.714143 0.591608 0.519615 0.768115 0.655744 0.768115 
0.655744 0.591608 0.591608 0.655744 0.655744 0.519615 0.43589 0.43589 0.591608 
0.43589 0.331662 0.591608 0.43589 0.655744 0.714143 0.591608 0.519615 0.519615 
0.591608 0.43589 0.331662 0.519615 0.331662 0.519615 0.714143 0.591608 0.519615 
0.591608 0.43589 0.519615 0.768115 0.655744 0.655744 0.768115 0.714143 0.714143 
0.768115 0.591608 0.591608 0.655744 0.768115 0.519615 0.591608 0.714143 0.591608 
0.714143 0.655744 0.768115 0.655744 0.591608 0.591608 0.655744 0.768115 0.43589 
0.43589 0.519615 0.655744 0.331662 0.43589 0.591608 0.43589 0.591608 0.655744 
0.519615 0.519615 0.591608 0.714143 0.331663 0.43589 0.591608 0.331663 0.519615 
0.519615 0.519615 0.591608 0.714143 0.43589 0.591608 0.519615 0.655744 0.768115 
0.655744 0.768115 0.714143 0.714143 0.768115 0.655744 0.591608 0.591608 0.655744 
0.768115 0.519615 0.519615 0.591608 0.714143 0.519615 0.591608 0.714143 0.655744 
0.768115 0.591608 0.591608 0.655744 0.768115 0.43589 0.43589 0.519615 0.655744 
0.331663 0.43589 0.591608 0.43589 0.591608 0.519615 0.591608 0.714143 0.331662 
0.43589 0.591608 0.331663 0.519615 0.591608 0.714143 0.43589 0.591608 0.655744 
0.768115 0.655744 0.768115 0.591608 0.519615 0.591608 0.768115 0.714143 0.591608 
0.591608 0.714143 0.714143 0.655744 0.714143 0.768115 0.768115 0.43589 0.331663 
0.43589 0.591608 0.43589 0.43589 0.591608 0.591608 0.519615 0.591608 0.655744 
0.655744 0.768115 0.331662 0.331663 0.519615 0.43589 0.519615 0.591608 0.591608 
0.714143 0.43589 0.591608 0.591608 0.714143 0.655744 0.768115 0.655744 0.655744 
0.655744 0.173205 0.173205 0.173205 0.331662 0.173205 0.331662 
METADATA
INFORMATION 0

Polynomial 1 205 float
1 2 2 3 2 3 3 4 1 
1 1 1 1 1 1 1 1 1 
1 1 1 1 1 1 1 1 1 
1 1 1 1 1 1 1 1 1 
1 1 1 1 1 1 1 1 1 
1 1 1 1 1 1 1 1 1 
1 1 1 1 1 1 2 2 2 
2 1 1 1 2 1 1 2 1 
2 1 2 2 2 2 2 3 1 
1 1 2 1 1 2 1 2 2 
2 2 2 3 1 1 2 1 2 
2 2 2 3 1 2 2 2 3 
2 2 2 2 2 2 2 2 2 
3 2 2 2 3 2 2 3 2 
3 1 1 1 2 1 1 1 2 
1 1 2 1 2 1 1 2 1 
1 2 1 2 1 2 1 2 1 
2 2 2 2 2 2 3 2 2 
2 3 2 2 3 2 3 1 1 
1 1 1 1 2 1 1 2 1 
2 2 1 1 1 1 2 1 2 
2 1 1 2 2 1 2 1 2 
1 1 1 1 1 1 1 
METADATA
INFORMATION 0

