# vtk DataFile Version 4.2
vtk output
ASCII
DATASET UNSTRUCTURED_GRID
POINTS 311 float
0 0 0 1 0 0 0 1 0 
1 1 0 0 0 1 1 0 1 
0 1 1 1 1 1 0.166667 0 0 
0.333333 0 0 0.5 0 0 0.666667 0 0 
0.833333 0 0 0 0.166667 0 0.166667 0.166667 0 
0.333333 0.166667 0 0.5 0.166667 0 0.666667 0.166667 0 
0.833333 0.166667 0 0 0.333333 0 0.166667 0.333333 0 
0.333333 0.333333 0 0.5 0.333333 0 0.666667 0.333333 0 
0 0.5 0 0.166667 0.5 0 0.333333 0.5 0 
0.5 0.5 0 0 0.666667 0 0.166667 0.666667 0 
0.333333 0.666667 0 0 0.833333 0 0.166667 0.833333 0 
0 0 0.166667 0.166667 0 0.166667 0.333333 0 0.166667 
0.5 0 0.166667 0.666667 0 0.166667 0.833333 0 0.166667 
0 0.166667 0.166667 0.166667 0.166667 0.166667 0.333333 0.166667 0.166667 
0.5 0.166667 0.166667 0.666667 0.166667 0.166667 0 0.333333 0.166667 
0.166667 0.333333 0.166667 0.333333 0.333333 0.166667 0.5 0.333333 0.166667 
0 0.5 0.166667 0.166667 0.5 0.166667 0.333333 0.5 0.166667 
0 0.666667 0.166667 0.166667 0.666667 0.166667 0 0.833333 0.166667 
0 0 0.333333 0.166667 0 0.333333 0.333333 0 0.333333 
0.5 0 0.333333 0.666667 0 0.333333 0 0.166667 0.333333 
0.166667 0.166667 0.333333 0.333333 0.166667 0.333333 0.5 0.166667 0.333333 
0 0.333333 0.333333 0.166667 0.333333 0.333333 0.333333 0.333333 0.333333 
0 0.5 0.333333 0.166667 0.5 0.333333 0 0.666667 0.333333 
0 0 0.5 0.166667 0 0.5 0.333333 0 0.5 
0.5 0 0.5 0 0.166667 0.5 0.166667 0.166667 0.5 
0.333333 0.166667 0.5 0 0.333333 0.5 0.166667 0.333333 0.5 
0 0.5 0.5 0 0 0.666667 0.166667 0 0.666667 
0.333333 0 0.666667 0 0.166667 0.666667 0.166667 0.166667 0.666667 
0 0.333333 0.666667 0 0 0.833333 0.166667 0 0.833333 
0 0.166667 0.833333 1 0.166667 0 1 0.333333 0 
1 0.5 0 1 0.666667 0 1 0.833333 0 
0.833333 0.333333 0 0.833333 0.5 0 0.833333 0.666667 0 
0.833333 0.833333 0 0.833333 1 0 0.666667 0.5 0 
0.666667 0.666667 0 0.666667 0.833333 0 0.666667 1 0 
0.5 0.666667 0 0.5 0.833333 0 0.5 1 0 
0.333333 0.833333 0 0.333333 1 0 0.166667 1 0 
1 0.166667 0.166667 1 0.333333 0.166667 1 0.5 0.166667 
1 0.666667 0.166667 1 0.833333 0.166667 1 1 0.166667 
0.833333 0.333333 0.166667 0.833333 0.5 0.166667 0.833333 0.666667 0.166667 
0.833333 0.833333 0.166667 0.833333 1 0.166667 0.666667 0.5 0.166667 
0.666667 0.666667 0.166667 0.666667 0.833333 0.166667 0.666667 1 0.166667 
0.5 0.666667 0.166667 0.5 0.833333 0.166667 0.5 1 0.166667 
0.333333 0.833333 0.166667 0.333333 1 0.166667 0.166667 1 0.166667 
1 0.333333 0.333333 1 0.5 0.333333 1 0.666667 0.333333 
1 0.833333 0.333333 1 1 0.333333 0.833333 0.5 0.333333 
0.833333 0.666667 0.333333 0.833333 0.833333 0.333333 0.833333 1 0.333333 
0.666667 0.666667 0.333333 0.666667 0.833333 0.333333 0.666667 1 0.333333 
0.5 0.833333 0.333333 0.5 1 0.333333 0.333333 1 0.333333 
1 0.5 0.5 1 0.666667 0.5 1 0.833333 0.5 
1 1 0.5 0.833333 0.666667 0.5 0.833333 0.833333 0.5 
0.833333 1 0.5 0.666667 0.833333 0.5 0.666667 1 0.5 
0.5 1 0.5 1 0.666667 0.666667 1 0.833333 0.666667 
1 1 0.666667 0.833333 0.833333 0.666667 0.833333 1 0.666667 
0.666667 1 0.666667 1 0.833333 0.833333 1 1 0.833333 
0.833333 1 0.833333 0 0.166667 1 0 0.333333 1 
0 0.5 1 0 0.666667 1 0 0.833333 1 
0.166667 0.166667 1 0.166667 0.333333 1 0.166667 0.5 1 
0.166667 0.666667 1 0.166667 0.833333 1 0.166667 1 1 
0.333333 0.333333 1 0.333333 0.5 1 0.333333 0.666667 1 
0.333333 0.833333 1 0.333333 1 1 0.5 0.5 1 
0.5 0.666667 1 0.5 0.833333 1 0.5 1 1 
0.666667 0.666667 1 0.666667 0.833333 1 0.666667 1 1 
0.833333 0.833333 1 0.833333 1 1 0 0.333333 0.833333 
0 0.5 0.833333 0 0.666667 0.833333 0 0.833333 0.833333 
0 1 0.833333 0.166667 0.333333 0.833333 0.166667 0.5 0.833333 
0.166667 0.666667 0.833333 0.166667 0.833333 0.833333 0.166667 1 0.833333 
0.333333 0.5 0.833333 0.333333 0.666667 0.833333 0.333333 0.833333 0.833333 
0.333333 1 0.833333 0.5 0.666667 0.833333 0.5 0.833333 0.833333 
0.5 1 0.833333 0.666667 0.833333 0.833333 0.666667 1 0.833333 
0 0.5 0.666667 0 0.666667 0.666667 0 0.833333 0.666667 
0 1 0.666667 0.166667 0.5 0.666667 0.166667 0.666667 0.666667 
0.166667 0.833333 0.666667 0.166667 1 0.666667 0.333333 0.666667 0.666667 
0.333333 0.833333 0.666667 0.333333 1 0.666667 0.5 0.833333 0.666667 
0.5 1 0.666667 0 0.666667 0.5 0 0.833333 0.5 
0 1 0.5 0.166667 0.666667 0.5 0.166667 0.833333 0.5 
0.166667 1 0.5 0.333333 0.833333 0.5 0.333333 1 0.5 
0 0.833333 0.333333 0 1 0.333333 0.166667 0.833333 0.333333 
0.166667 1 0.333333 0 1 0.166667 0.166667 0 1 
0.333333 0.166667 1 0.5 0.333333 1 0.666667 0.5 1 
0.833333 0.666667 1 1 0.833333 1 0.333333 0 1 
0.5 0.166667 1 0.666667 0.333333 1 0.833333 0.5 1 
1 0.666667 1 0.5 0 1 0.666667 0.166667 1 
0.833333 0.333333 1 1 0.5 1 0.666667 0 1 
0.833333 0.166667 1 1 0.333333 1 0.833333 0 1 
1 0.166667 1 0.333333 0.166667 0.833333 0.5 0.333333 0.833333 
0.666667 0.5 0.833333 0.833333 0.666667 0.833333 0.333333 0 0.833333 
0.5 0.166667 0.833333 0.666667 0.333333 0.833333 0.833333 0.5 0.833333 
1 0.666667 0.833333 0.5 0 0.833333 0.666667 0.166667 0.833333 
0.833333 0.333333 0.833333 1 0.5 0.833333 0.666667 0 0.833333 
0.833333 0.166667 0.833333 1 0.333333 0.833333 0.833333 0 0.833333 
1 0.166667 0.833333 1 0 0.833333 0.5 0.166667 0.666667 
0.666667 0.333333 0.666667 0.833333 0.5 0.666667 0.5 0 0.666667 
0.666667 0.166667 0.666667 0.833333 0.333333 0.666667 1 0.5 0.666667 
0.666667 0 0.666667 0.833333 0.166667 0.666667 1 0.333333 0.666667 
0.833333 0 0.666667 1 0.166667 0.666667 1 0 0.666667 
0.666667 0.166667 0.5 0.833333 0.333333 0.5 0.666667 0 0.5 
0.833333 0.166667 0.5 1 0.333333 0.5 0.833333 0 0.5 
1 0.166667 0.5 1 0 0.5 0.833333 0.166667 0.333333 
0.833333 0 0.333333 1 0.166667 0.333333 1 0 0.333333 
1 0 0.166667 -2.77556e-17 0.166667 0.833333 0.666667 0.333333 0.333333 
0.5 0.333333 0.5 0.333333 0.333333 0.666667 0.666667 0.5 0.5 
0.5 0.5 0.666667 0.666667 0.666667 0.666667 5.55112e-17 0.333333 0.666667 
0.5 0.5 0.333333 0.333333 0.5 0.5 0.5 0.666667 0.5 
0.333333 0.666667 0.333333 1.11022e-16 0.666667 0.333333 
METADATA
INFORMATION 2
NAME L2_NORM_RANGE LOCATION vtkDataArray
DATA 2 0 1.73205 
NAME L2_NORM_FINITE_RANGE LOCATION vtkDataArray
DATA 2 0 1.73205 

CELLS 1 85
84 0 1 2 4 8 9 10 11 12 18 23 27 30 32 31 28 24 19 13 33 54 69 79 85 38 58 72 81 86 53 68 78 84 87 34 37 80 35 36 57 71 70 55 56 52 83 43 67 77 75 62 47 50 65 39 82 51 59 73 76 66 48 44 63 14 29 17 20 25 26 22 16 15 21 40 42 49 74 41 46 45 60 61 64 

CELL_TYPES 1
71

POINT_DATA 311
FIELD FieldData 2
DistanceToCenter 1 311 float
0.866025 0.866025 0.866025 0.866025 0.866025 0.866025 0.866025 0.866025 0.781736 
0.726483 0.707107 0.726483 0.781736 0.781736 0.687184 0.62361 0.600925 0.62361 
0.687184 0.726483 0.62361 0.552771 0.527046 0.552771 0.707107 0.600925 0.527046 
0.5 0.726483 0.62361 0.552771 0.781736 0.687184 0.781736 0.687184 0.62361 
0.600925 0.62361 0.687184 0.687184 0.57735 0.5 0.471405 0.5 0.62361 
0.5 0.408248 0.372678 0.600925 0.471405 0.372678 0.62361 0.5 0.687184 
0.726483 0.62361 0.552771 0.527046 0.552771 0.62361 0.5 0.408248 0.372678 
0.552771 0.408248 0.288675 0.527046 0.372678 0.552771 0.707107 0.600925 0.527046 
0.5 0.600925 0.471405 0.372678 0.527046 0.372678 0.5 0.726483 0.62361 
0.552771 0.62361 0.5 0.552771 0.781736 0.687184 0.687184 0.781736 0.726483 
0.707107 0.726483 0.781736 0.62361 0.600925 0.62361 0.687184 0.781736 0.527046 
0.552771 0.62361 0.726483 0.527046 0.600925 0.707107 0.62361 0.726483 0.781736 
0.687184 0.62361 0.600925 0.62361 0.687184 0.781736 0.5 0.471404 0.5 
0.57735 0.687184 0.372678 0.408248 0.5 0.62361 0.372678 0.471404 0.600925 
0.5 0.62361 0.687184 0.552771 0.527046 0.552771 0.62361 0.726483 0.372678 
0.408248 0.5 0.62361 0.288675 0.408248 0.552771 0.372678 0.527046 0.552771 
0.5 0.527046 0.600925 0.707107 0.372678 0.471404 0.600925 0.372678 0.527046 
0.5 0.552771 0.62361 0.726483 0.5 0.62361 0.552771 0.687184 0.781736 
0.687184 0.781736 0.726483 0.707107 0.726483 0.781736 0.687184 0.62361 0.600925 
0.62361 0.687184 0.781736 0.552771 0.527046 0.552771 0.62361 0.726483 0.5 
0.527046 0.600925 0.707107 0.552771 0.62361 0.726483 0.687184 0.781736 0.62361 
0.600925 0.62361 0.687184 0.781736 0.5 0.471404 0.5 0.57735 0.687184 
0.372678 0.408248 0.5 0.62361 0.372678 0.471404 0.600925 0.5 0.62361 
0.527046 0.552771 0.62361 0.726483 0.372678 0.408248 0.5 0.62361 0.288675 
0.408248 0.552771 0.372678 0.527046 0.527046 0.600925 0.707107 0.372678 0.471404 
0.600925 0.372678 0.527046 0.62361 0.726483 0.5 0.62361 0.781736 0.781736 
0.62361 0.527046 0.527046 0.62361 0.781736 0.726483 0.600925 0.552771 0.600925 
0.726483 0.707107 0.62361 0.62361 0.707107 0.726483 0.687184 0.726483 0.781736 
0.781736 0.5 0.372678 0.372678 0.5 0.62361 0.471404 0.408248 0.471404 
0.62361 0.600925 0.5 0.5 0.600925 0.62361 0.57735 0.62361 0.687184 
0.687184 0.781736 0.372678 0.288675 0.372678 0.527046 0.408248 0.408248 0.527046 
0.552771 0.5 0.552771 0.62361 0.62361 0.726483 0.372678 0.372678 0.527046 
0.471404 0.527046 0.600925 0.600925 0.707107 0.5 0.62361 0.62361 0.726483 
0.781736 0.687184 0.288675 0.166667 0.288675 0.166667 0.166667 0.288675 0.552771 
0.166667 0.166667 0.166667 0.288675 0.552771 
METADATA
INFORMATION 0

Polynomial 1 311 float
1 2 2 3 2 3 3 4 1 
1 1 1 1 1 1 1 1 1 
1 1 1 1 1 1 1 1 1 
1 1 1 1 1 1 1 1 1 
1 1 1 1 1 1 1 1 1 
1 1 1 1 1 1 1 1 1 
1 1 1 1 1 1 1 1 1 
1 1 1 1 1 1 1 1 1 
1 1 1 1 1 1 1 1 1 
1 1 1 1 1 1 1 2 2 
2 2 2 1 1 1 1 2 1 
1 1 2 1 1 2 1 2 2 
2 2 2 2 2 3 1 1 1 
1 2 1 1 1 2 1 1 2 
1 2 2 2 2 2 2 3 1 
1 1 2 1 1 2 1 2 2 
2 2 2 3 1 1 2 1 2 
2 2 2 3 1 2 2 2 3 
2 2 2 2 2 2 2 2 2 
2 2 3 2 2 2 2 3 2 
2 2 3 2 2 3 2 3 1 
1 1 1 2 1 1 1 1 2 
1 1 1 2 1 1 2 1 2 
1 1 1 2 1 1 1 2 1 
1 2 1 2 1 1 2 1 1 
2 1 2 1 2 1 2 2 2 
2 2 2 2 3 2 2 2 2 
3 2 2 2 3 2 2 3 2 
3 1 1 1 1 1 1 1 1 
2 1 1 1 2 1 1 2 1 
2 2 1 1 1 1 1 1 2 
1 1 2 1 2 2 1 1 1 
1 2 1 2 2 1 1 2 2 
2 1 1 1 1 1 1 1 1 
1 1 1 1 1 
METADATA
INFORMATION 0

