# vtk DataFile Version 4.2
vtk output
ASCII
DATASET UNSTRUCTURED_GRID
POINTS 205 float
0 0 0 1 0 0 0 1 0 
1 1 0 0 0 1 1 0 1 
0 1 1 1 1 1 0.2 0 0 
0.4 0 0 0.6 0 0 0.8 0 0 
0 0.2 0 0.2 0.2 0 0.4 0.2 0 
0.6 0.2 0 0.8 0.2 0 0 0.4 0 
0.2 0.4 0 0.4 0.4 0 0.6 0.4 0 
0 0.6 0 0.2 0.6 0 0.4 0.6 0 
0 0.8 0 0.2 0.8 0 0 0 0.2 
0.2 0 0.2 0.4 0 0.2 0.6 0 0.2 
0.8 0 0.2 0 0.2 0.2 0.2 0.2 0.2 
0.4 0.2 0.2 0.6 0.2 0.2 0 0.4 0.2 
0.2 0.4 0.2 0.4 0.4 0.2 0 0.6 0.2 
0.2 0.6 0.2 0 0.8 0.2 0 0 0.4 
0.2 0 0.4 0.4 0 0.4 0.6 0 0.4 
0 0.2 0.4 0.2 0.2 0.4 0.4 0.2 0.4 
0 0.4 0.4 0.2 0.4 0.4 0 0.6 0.4 
0 0 0.6 0.2 0 0.6 0.4 0 0.6 
0 0.2 0.6 0.2 0.2 0.6 0 0.4 0.6 
0 0 0.8 0.2 0 0.8 0 0.2 0.8 
1 0.2 0 1 0.4 0 1 0.6 0 
1 0.8 0 0.8 0.4 0 0.8 0.6 0 
0.8 0.8 0 0.8 1 0 0.6 0.6 0 
0.6 0.8 0 0.6 1 0 0.4 0.8 0 
0.4 1 0 0.2 0.8 0 0.2 1 0 
1 0.2 0.2 1 0.4 0.2 1 0.6 0.2 
1 0.8 0.2 1 1 0.2 0.8 0.4 0.2 
0.8 0.6 0.2 0.8 0.8 0.2 0.8 1 0.2 
0.6 0.6 0.2 0.6 0.8 0.2 0.6 1 0.2 
0.4 0.8 0.2 0.4 1 0.2 0.2 1 0.2 
1 0.4 0.4 1 0.6 0.4 1 0.8 0.4 
1 1 0.4 0.8 0.6 0.4 0.8 0.8 0.4 
0.8 1 0.4 0.6 0.8 0.4 0.6 1 0.4 
0.4 1 0.4 1 0.6 0.6 1 0.8 0.6 
1 1 0.6 0.8 0.8 0.6 0.8 1 0.6 
0.6 1 0.6 1 0.8 0.8 1 1 0.8 
0.8 1 0.8 0 0.2 1 0 0.4 1 
0 0.6 1 0 0.8 1 0.2 0.2 1 
0.2 0.4 1 0.2 0.6 1 0.2 0.8 1 
0.2 1 1 0.4 0.4 1 0.4 0.6 1 
0.4 0.8 1 0.4 1 1 0.6 0.6 1 
0.6 0.8 1 0.6 1 1 0.8 0.8 1 
0.8 1 1 0 0.4 0.8 0 0.6 0.8 
0 0.8 0.8 0 1 0.8 0.2 0.4 0.8 
0.2 0.6 0.8 0.2 0.8 0.8 0.2 1 0.8 
0.4 0.6 0.8 0.4 0.8 0.8 0.4 1 0.8 
0.6 0.8 0.8 0.6 1 0.8 0 0.6 0.6 
0 0.8 0.6 0 1 0.6 0.2 0.6 0.6 
0.2 0.8 0.6 0.2 1 0.6 0.4 0.8 0.6 
0.4 1 0.6 0 0.8 0.4 0 1 0.4 
0.2 0.8 0.4 0.2 1 0.4 0 0.8 0.2 
0 1 0.2 0.2 1 0.2 0.2 0 1 
0.4 0.2 1 0.6 0.4 1 0.8 0.6 1 
1 0.8 1 0.4 0 1 0.6 0.2 1 
0.8 0.4 1 1 0.6 1 0.6 0 1 
0.8 0.2 1 1 0.4 1 0.8 0 1 
1 0.2 1 0.4 0.2 0.8 0.6 0.4 0.8 
0.8 0.6 0.8 0.4 0 0.8 0.6 0.2 0.8 
0.8 0.4 0.8 1 0.6 0.8 0.6 0 0.8 
0.8 0.2 0.8 1 0.4 0.8 0.8 0 0.8 
1 0.2 0.8 1 0 0.8 0.6 0.2 0.6 
0.8 0.4 0.6 0.6 0 0.6 0.8 0.2 0.6 
1 0.4 0.6 0.8 0 0.6 1 0.2 0.6 
1 0 0.6 0.8 0.2 0.4 0.8 0 0.4 
1 0.2 0.4 1 0 0.4 0.8 0 0.2 
1 0 0.2 0.2 0 0.8 0.2 0.2 1 
-5.55112e-17 0.2 0.8 0.6 0.4 0.4 0.4 0.4 0.6 
0.6 0.6 0.6 0.2 0.4 0.4 0.4 0.6 0.4 
0.2 0.6 0.6 
METADATA
INFORMATION 2
NAME L2_NORM_RANGE LOCATION vtkDataArray
DATA 2 0 1.73205 
NAME L2_NORM_FINITE_RANGE LOCATION vtkDataArray
DATA 2 0 1.73205 

CELLS 1 57
56 0 1 2 4 8 9 10 11 16 20 23 25 24 21 17 12 26 41 51 57 30 44 53 58 40 50 56 59 27 29 52 28 43 42 39 55 34 49 47 37 31 54 38 45 48 35 13 22 15 18 19 14 32 33 36 46 

CELL_TYPES 1
71

POINT_DATA 205
FIELD FieldData 2
DistanceToCenter 1 205 float
0.866025 0.866025 0.866025 0.866025 0.866025 0.866025 0.866025 0.866025 0.768115 
0.714143 0.714143 0.768115 0.768115 0.655744 0.591608 0.591608 0.655744 0.714143 
0.591608 0.519615 0.519615 0.714143 0.591608 0.519615 0.768115 0.655744 0.768115 
0.655744 0.591608 0.591608 0.655744 0.655744 0.519615 0.43589 0.43589 0.591608 
0.43589 0.331662 0.591608 0.43589 0.655744 0.714143 0.591608 0.519615 0.519615 
0.591608 0.43589 0.331662 0.519615 0.331662 0.519615 0.714143 0.591608 0.519615 
0.591608 0.43589 0.519615 0.768115 0.655744 0.655744 0.768115 0.714143 0.714143 
0.768115 0.591608 0.591608 0.655744 0.768115 0.519615 0.591608 0.714143 0.591608 
0.714143 0.655744 0.768115 0.655744 0.591608 0.591608 0.655744 0.768115 0.43589 
0.43589 0.519615 0.655744 0.331662 0.43589 0.591608 0.43589 0.591608 0.655744 
0.519615 0.519615 0.591608 0.714143 0.331663 0.43589 0.591608 0.331663 0.519615 
0.519615 0.519615 0.591608 0.714143 0.43589 0.591608 0.519615 0.655744 0.768115 
0.655744 0.768115 0.714143 0.714143 0.768115 0.655744 0.591608 0.591608 0.655744 
0.768115 0.519615 0.519615 0.591608 0.714143 0.519615 0.591608 0.714143 0.655744 
0.768115 0.591608 0.591608 0.655744 0.768115 0.43589 0.43589 0.519615 0.655744 
0.331663 0.43589 0.591608 0.43589 0.591608 0.519615 0.591608 0.714143 0.331662 
0.43589 0.591608 0.331663 0.519615 0.591608 0.714143 0.43589 0.591608 0.655744 
0.768115 0.655744 0.768115 0.591608 0.519615 0.591608 0.768115 0.714143 0.591608 
0.591608 0.714143 0.714143 0.655744 0.714143 0.768115 0.768115 0.43589 0.331663 
0.43589 0.591608 0.43589 0.43589 0.591608 0.591608 0.519615 0.591608 0.655744 
0.655744 0.768115 0.331662 0.331663 0.519615 0.43589 0.519615 0.591608 0.591608 
0.714143 0.43589 0.591608 0.591608 0.714143 0.655744 0.768115 0.655744 0.655744 
0.655744 0.173205 0.173205 0.173205 0.331662 0.173205 0.331662 
METADATA
INFORMATION 0

Polynomial 1 205 float
1 2 2 3 2 3 3 4 1 
1 1 1 1 1 1 1 1 1 
1 1 1 1 1 1 1 1 1 
1 1 1 1 1 1 1 1 1 
1 1 1 1 1 1 1 1 1 
1 1 1 1 1 1 1 1 1 
1 1 1 1 1 1 2 2 2 
2 1 1 1 2 1 1 2 1 
2 1 2 2 2 2 2 3 1 
1 1 2 1 1 2 1 2 2 
2 2 2 3 1 1 2 1 2 
2 2 2 3 1 2 2 2 3 
2 2 2 2 2 2 2 2 2 
3 2 2 2 3 2 2 3 2 
3 1 1 1 2 1 1 1 2 
1 1 2 1 2 1 1 2 1 
1 2 1 2 1 2 1 2 1 
2 2 2 2 2 2 3 2 2 
2 3 2 2 3 2 3 1 1 
1 1 1 1 2 1 1 2 1 
2 2 1 1 1 1 2 1 2 
2 1 1 2 2 1 2 1 2 
1 1 1 1 1 1 1 
METADATA
INFORMATION 0

