# vtk DataFile Version 4.2
vtk output
ASCII
DATASET UNSTRUCTURED_GRID
POINTS 62 float
0 0 0 1 0 0 0 1 0 
1 1 0 0 0 1 1 0 1 
0 1 1 1 1 1 0.333333 0 0 
0.666667 0 0 0 0.333333 0 0.333333 0.333333 0 
0.666667 0.333333 0 0 0.666667 0 0.333333 0.666667 0 
0 0 0.333333 0.333333 0 0.333333 0.666667 0 0.333333 
0 0.333333 0.333333 0.333333 0.333333 0.333333 0 0.666667 0.333333 
0 0 0.666667 0.333333 0 0.666667 0 0.333333 0.666667 
1 0.333333 0 1 0.666667 0 0.666667 0.666667 0 
0.666667 1 0 0.333333 1 0 1 0.333333 0.333333 
1 0.666667 0.333333 1 1 0.333333 0.666667 0.666667 0.333333 
0.666667 1 0.333333 0.333333 1 0.333333 1 0.666667 0.666667 
1 1 0.666667 0.666667 1 0.666667 0 0.333333 1 
0 0.666667 1 0.333333 0.333333 1 0.333333 0.666667 1 
0.333333 1 1 0.666667 0.666667 1 0.666667 1 1 
0 0.666667 0.666667 0 1 0.666667 0.333333 0.666667 0.666667 
0.333333 1 0.666667 0 1 0.333333 0.333333 0 1 
0.666667 0.333333 1 1 0.666667 1 0.666667 0 1 
1 0.333333 1 0.666667 0.333333 0.666667 0.666667 0 0.666667 
1 0.333333 0.666667 1 0 0.666667 1 0 0.333333 
5.55112e-17 0.333333 0.666667 1.11022e-16 0.666667 0.333333 
METADATA
INFORMATION 2
NAME L2_NORM_RANGE LOCATION vtkDataArray
DATA 2 0 1.73205 
NAME L2_NORM_FINITE_RANGE LOCATION vtkDataArray
DATA 2 0 1.73205 

CELLS 5 105
20 0 1 2 4 8 9 12 14 13 10 15 21 17 22 20 23 16 19 18 11 
20 1 3 2 7 24 25 27 28 14 12 29 35 31 36 34 37 30 33 32 26 
20 4 6 7 2 38 39 42 44 43 40 23 20 46 49 37 34 45 48 47 41 
20 4 7 5 1 40 43 52 54 53 50 22 17 35 29 58 59 55 57 56 51 
20 1 4 7 2 17 22 40 43 35 29 12 14 60 61 37 34 19 47 32 55 

CELL_TYPES 5
71
71
71
71
71

POINT_DATA 62
FIELD FieldData 2
DistanceToCenter 1 62 float
0.866025 0.866025 0.866025 0.866025 0.866025 0.866025 0.866025 0.866025 0.726483 
0.726483 0.726483 0.552771 0.552771 0.726483 0.552771 0.726483 0.552771 0.552771 
0.552771 0.288675 0.552771 0.726483 0.552771 0.552771 0.726483 0.726483 0.552771 
0.726483 0.726483 0.552771 0.552771 0.726483 0.288675 0.552771 0.552771 0.552771 
0.726483 0.552771 0.726483 0.726483 0.552771 0.552771 0.726483 0.552771 0.726483 
0.552771 0.726483 0.288675 0.552771 0.726483 0.726483 0.552771 0.726483 0.726483 
0.726483 0.288675 0.552771 0.552771 0.726483 0.726483 0.552771 0.552771 
METADATA
INFORMATION 0

Polynomial 1 62 float
1 6 6 21 6 21 21 56 1 
1 1 1 1 1 1 1 1 1 
1 1 1 1 1 1 6 6 1 
6 6 6 6 21 1 6 6 6 
21 6 6 6 6 6 21 6 21 
1 6 1 6 6 6 6 21 6 
21 1 1 6 6 6 1 1 
METADATA
INFORMATION 0

