# vtk DataFile Version 4.2
vtk output
ASCII
DATASET UNSTRUCTURED_GRID
POINTS 49 float
0 0 0 1 0 0 0 1 0 
1 1 0 0.166667 0 0 0.333333 0 0 
0.5 0 0 0.666667 0 0 0.833333 0 0 
0 0.166667 0 0.166667 0.166667 0 0.333333 0.166667 0 
0.5 0.166667 0 0.666667 0.166667 0 0.833333 0.166667 0 
1 0.166667 0 0 0.333333 0 0.166667 0.333333 0 
0.333333 0.333333 0 0.5 0.333333 0 0.666667 0.333333 0 
0.833333 0.333333 0 1 0.333333 0 0 0.5 0 
0.166667 0.5 0 0.333333 0.5 0 0.5 0.5 0 
0.666667 0.5 0 0.833333 0.5 0 1 0.5 0 
0 0.666667 0 0.166667 0.666667 0 0.333333 0.666667 0 
0.5 0.666667 0 0.666667 0.666667 0 0.833333 0.666667 0 
1 0.666667 0 0 0.833333 0 0.166667 0.833333 0 
0.333333 0.833333 0 0.5 0.833333 0 0.666667 0.833333 0 
0.833333 0.833333 0 1 0.833333 0 0.166667 1 0 
0.333333 1 0 0.5 1 0 0.666667 1 0 
0.833333 1 0 
METADATA
INFORMATION 2
NAME L2_NORM_RANGE LOCATION vtkDataArray
DATA 2 0 1.41421 
NAME L2_NORM_FINITE_RANGE LOCATION vtkDataArray
DATA 2 0 1.41421 

CELLS 1 29
28 0 1 2 4 5 6 7 8 14 20 26 32 38 37 30 23 16 9 10 13 31 11 12 19 25 24 17 18 

CELL_TYPES 1 
69

POINT_DATA 49
FIELD FieldData 2
DistanceToCenter 1 49 float
0.707107 0.707107 0.707107 0.707107 0.600925 0.527046 0.5 0.527046 0.600925 
0.600925 0.471405 0.372678 0.333333 0.372678 0.471404 0.600925 0.527046 0.372678 
0.235702 0.166667 0.235702 0.372678 0.527046 0.5 0.333333 0.166667 0 
0.166667 0.333333 0.5 0.527046 0.372678 0.235702 0.166667 0.235702 0.372678 
0.527046 0.600925 0.471404 0.372678 0.333333 0.372678 0.471404 0.600925 0.600925 
0.527046 0.5 0.527046 0.600925 
METADATA
INFORMATION 0

Polynomial 1 49 float
1 2 2 3 1 1 1 1 1 
1 1 1 1 1 1 2 1 1 
1 1 1 1 2 1 1 1 1 
1 1 2 1 1 1 1 1 1 
2 1 1 1 1 1 1 2 2 
2 2 2 2 
METADATA
INFORMATION 0

