# vtk DataFile Version 4.2
vtk output
ASCII
DATASET UNSTRUCTURED_GRID
POINTS 25 float
0 0 0 1 0 0 0 1 0 
1 1 0 0.25 0 0 0.5 0 0 
0.75 0 0 0 0.25 0 0.25 0.25 0 
0.5 0.25 0 0.75 0.25 0 1 0.25 0 
0 0.5 0 0.25 0.5 0 0.5 0.5 0 
0.75 0.5 0 1 0.5 0 0 0.75 0 
0.25 0.75 0 0.5 0.75 0 0.75 0.75 0 
1 0.75 0 0.25 1 0 0.5 1 0 
0.75 1 0 
METADATA
INFORMATION 2
NAME L2_NORM_RANGE LOCATION vtkDataArray
DATA 2 0 1.41421 
NAME L2_NORM_FINITE_RANGE LOCATION vtkDataArray
DATA 2 0 1.41421 

CELLS 2 32
15 0 1 2 4 5 6 10 14 18 17 12 7 8 9 13 
15 3 2 1 24 23 22 18 14 10 11 16 21 20 19 15 

CELL_TYPES 2
69
69

POINT_DATA 25
FIELD FieldData 2
DistanceToCenter 1 25 float
0.707107 0.707107 0.707107 0.707107 0.559017 0.5 0.559017 0.559017 0.353553 
0.25 0.353553 0.559017 0.5 0.25 0 0.25 0.5 0.559017 
0.353553 0.25 0.353553 0.559017 0.559017 0.5 0.559017 
METADATA
INFORMATION 0

Polynomial 1 25 float
1 2 2 3 1 1 1 1 1 
1 1 2 1 1 1 1 2 1 
1 1 1 2 2 2 2 
METADATA
INFORMATION 0

