# vtk DataFile Version 4.2
vtk output
ASCII
DATASET UNSTRUCTURED_GRID
POINTS 9 float
0 0 0 1 0 0 0 1 0 
1 1 0 0.5 0 0 0 0.5 0 
0.5 0.5 0 1 0.5 0 0.5 1 0 

METADATA
INFORMATION 2
NAME L2_NORM_RANGE LOCATION vtkDataArray
DATA 2 0 1.41421 
NAME L2_NORM_FINITE_RANGE LOCATION vtkDataArray
DATA 2 0 1.41421 

CELLS 2 14
6 0 1 2 4 6 5 
6 3 2 1 8 6 7 

CELL_TYPES 2
69
69

POINT_DATA 9
FIELD FieldData 2
DistanceToCenter 1 9 float
0.707107 0.707107 0.707107 0.707107 0.5 0.5 0 0.5 0.5 

METADATA
INFORMATION 0

Polynomial 1 9 float
1 2 2 3 1 1 1 2 2 

METADATA
INFORMATION 0

