# vtk DataFile Version 4.2
vtk output
ASCII
DATASET UNSTRUCTURED_GRID
POINTS 125 float
0 0 0 1 0 0 0 1 0 
1 1 0 0 0 1 1 0 1 
0 1 1 1 1 1 0.25 0 0 
0.5 0 0 0.75 0 0 0 0.25 0 
0.25 0.25 0 0.5 0.25 0 0.75 0.25 0 
1 0.25 0 0 0.5 0 0.25 0.5 0 
0.5 0.5 0 0.75 0.5 0 1 0.5 0 
0 0.75 0 0.25 0.75 0 0.5 0.75 0 
0.75 0.75 0 1 0.75 0 0.25 1 0 
0.5 1 0 0.75 1 0 0 0 0.25 
0.25 0 0.25 0.5 0 0.25 0.75 0 0.25 
1 0 0.25 0 0.25 0.25 0.25 0.25 0.25 
0.5 0.25 0.25 0.75 0.25 0.25 1 0.25 0.25 
0 0.5 0.25 0.25 0.5 0.25 0.5 0.5 0.25 
0.75 0.5 0.25 1 0.5 0.25 0 0.75 0.25 
0.25 0.75 0.25 0.5 0.75 0.25 0.75 0.75 0.25 
1 0.75 0.25 0 1 0.25 0.25 1 0.25 
0.5 1 0.25 0.75 1 0.25 1 1 0.25 
0 0 0.5 0.25 0 0.5 0.5 0 0.5 
0.75 0 0.5 1 0 0.5 0 0.25 0.5 
0.25 0.25 0.5 0.5 0.25 0.5 0.75 0.25 0.5 
1 0.25 0.5 0 0.5 0.5 0.25 0.5 0.5 
0.5 0.5 0.5 0.75 0.5 0.5 1 0.5 0.5 
0 0.75 0.5 0.25 0.75 0.5 0.5 0.75 0.5 
0.75 0.75 0.5 1 0.75 0.5 0 1 0.5 
0.25 1 0.5 0.5 1 0.5 0.75 1 0.5 
1 1 0.5 0 0 0.75 0.25 0 0.75 
0.5 0 0.75 0.75 0 0.75 1 0 0.75 
0 0.25 0.75 0.25 0.25 0.75 0.5 0.25 0.75 
0.75 0.25 0.75 1 0.25 0.75 0 0.5 0.75 
0.25 0.5 0.75 0.5 0.5 0.75 0.75 0.5 0.75 
1 0.5 0.75 0 0.75 0.75 0.25 0.75 0.75 
0.5 0.75 0.75 0.75 0.75 0.75 1 0.75 0.75 
0 1 0.75 0.25 1 0.75 0.5 1 0.75 
0.75 1 0.75 1 1 0.75 0.25 0 1 
0.5 0 1 0.75 0 1 0 0.25 1 
0.25 0.25 1 0.5 0.25 1 0.75 0.25 1 
1 0.25 1 0 0.5 1 0.25 0.5 1 
0.5 0.5 1 0.75 0.5 1 1 0.5 1 
0 0.75 1 0.25 0.75 1 0.5 0.75 1 
0.75 0.75 1 1 0.75 1 0.25 1 1 
0.5 1 1 0.75 1 1 
METADATA
INFORMATION 2
NAME L2_NORM_RANGE LOCATION vtkDataArray
DATA 2 0 1.73205 
NAME L2_NORM_FINITE_RANGE LOCATION vtkDataArray
DATA 2 0 1.73205 

CELLS 2 152
75 0 1 2 4 5 6 8 9 10 14 18 22 21 16 11 104 105 106 110 114 118 117 112 107 29 54 79 33 58 83 49 74 99 12 13 17 108 109 113 30 31 32 55 56 57 80 81 82 37 41 45 62 66 70 87 91 95 34 39 44 59 64 69 84 89 94 35 36 40 60 61 65 85 86 90 
75 3 2 1 7 6 5 28 27 26 22 18 14 15 20 25 124 123 122 118 114 110 111 116 121 53 78 103 49 74 99 33 58 83 24 23 19 120 119 115 52 51 50 77 76 75 102 101 100 45 41 37 70 66 62 95 91 87 48 43 38 73 68 63 98 93 88 47 46 42 72 71 67 97 96 92 

CELL_TYPES 2
73
73

POINT_DATA 125
FIELD FieldData 2
DistanceToCenter 1 125 float
0.866025 0.866025 0.866025 0.866025 0.866025 0.866025 0.866025 0.866025 0.75 
0.707107 0.75 0.75 0.612372 0.559017 0.612372 0.75 0.707107 0.559017 
0.5 0.559017 0.707107 0.75 0.612372 0.559017 0.612372 0.75 0.75 
0.707107 0.75 0.75 0.612372 0.559017 0.612372 0.75 0.612372 0.433013 
0.353553 0.433013 0.612372 0.559017 0.353553 0.25 0.353553 0.559017 0.612372 
0.433013 0.353553 0.433013 0.612372 0.75 0.612372 0.559017 0.612372 0.75 
0.707107 0.559017 0.5 0.559017 0.707107 0.559017 0.353553 0.25 0.353553 
0.559017 0.5 0.25 0 0.25 0.5 0.559017 0.353553 0.25 
0.353553 0.559017 0.707107 0.559017 0.5 0.559017 0.707107 0.75 0.612372 
0.559017 0.612372 0.75 0.612372 0.433013 0.353553 0.433013 0.612372 0.559017 
0.353553 0.25 0.353553 0.559017 0.612372 0.433013 0.353553 0.433013 0.612372 
0.75 0.612372 0.559017 0.612372 0.75 0.75 0.707107 0.75 0.75 
0.612372 0.559017 0.612372 0.75 0.707107 0.559017 0.5 0.559017 0.707107 
0.75 0.612372 0.559017 0.612372 0.75 0.75 0.707107 0.75 
METADATA
INFORMATION 0

Polynomial 1 125 float
1 6 6 21 6 21 21 56 1 
1 1 1 1 1 1 6 1 1 
1 1 6 1 1 1 1 6 6 
6 6 1 1 1 1 6 1 1 
1 1 6 1 1 1 1 6 1 
1 1 1 6 6 6 6 6 21 
1 1 1 1 6 1 1 1 1 
6 1 1 1 1 6 1 1 1 
1 6 6 6 6 6 21 1 1 
1 1 6 1 1 1 1 6 1 
1 1 1 6 1 1 1 1 6 
6 6 6 6 21 6 6 6 6 
6 6 6 21 6 6 6 6 21 
6 6 6 6 21 21 21 21 
METADATA
INFORMATION 0

