# vtk DataFile Version 4.2
vtk output
ASCII
DATASET UNSTRUCTURED_GRID
POINTS 27 float
0 0 0 1 0 0 0 1 0 
1 1 0 0 0 1 1 0 1 
0 1 1 1 1 1 0.5 0 0 
0 0.5 0 0.5 0.5 0 1 0.5 0 
0.5 1 0 0 0 0.5 0.5 0 0.5 
1 0 0.5 0 0.5 0.5 0.5 0.5 0.5 
1 0.5 0.5 0 1 0.5 0.5 1 0.5 
1 1 0.5 0.5 0 1 0 0.5 1 
0.5 0.5 1 1 0.5 1 0.5 1 1 

METADATA
INFORMATION 2
NAME L2_NORM_RANGE LOCATION vtkDataArray
DATA 2 0 1.73205 
NAME L2_NORM_FINITE_RANGE LOCATION vtkDataArray
DATA 2 0 1.73205 

CELLS 2 38
18 0 1 2 4 5 6 8 10 9 22 24 23 13 15 19 14 17 16 
18 3 2 1 7 6 5 12 10 11 26 24 25 21 19 15 20 17 18 

CELL_TYPES 2
73
73

POINT_DATA 27
FIELD FieldData 2
DistanceToCenter 1 27 float
0.866025 0.866025 0.866025 0.866025 0.866025 0.866025 0.866025 0.866025 0.707107 
0.707107 0.5 0.707107 0.707107 0.707107 0.5 0.707107 0.5 0 
0.5 0.707107 0.5 0.707107 0.707107 0.707107 0.5 0.707107 0.707107 

METADATA
INFORMATION 0

Polynomial 1 27 float
1 6 6 21 6 21 21 56 1 
1 1 6 6 1 1 6 1 1 
6 6 6 21 6 6 6 21 21 

METADATA
INFORMATION 0

