# vtk DataFile Version 4.2
vtk output
ASCII
DATASET UNSTRUCTURED_GRID
POINTS 343 float
0 0 0 1 0 0 0 1 0 
1 1 0 0 0 1 1 0 1 
0 1 1 1 1 1 0.166667 0 0 
0.333333 0 0 0.5 0 0 0.666667 0 0 
0.833333 0 0 0 0.166667 0 0.166667 0.166667 0 
0.333333 0.166667 0 0.5 0.166667 0 0.666667 0.166667 0 
0.833333 0.166667 0 1 0.166667 0 0 0.333333 0 
0.166667 0.333333 0 0.333333 0.333333 0 0.5 0.333333 0 
0.666667 0.333333 0 0.833333 0.333333 0 1 0.333333 0 
0 0.5 0 0.166667 0.5 0 0.333333 0.5 0 
0.5 0.5 0 0.666667 0.5 0 0.833333 0.5 0 
1 0.5 0 0 0.666667 0 0.166667 0.666667 0 
0.333333 0.666667 0 0.5 0.666667 0 0.666667 0.666667 0 
0.833333 0.666667 0 1 0.666667 0 0 0.833333 0 
0.166667 0.833333 0 0.333333 0.833333 0 0.5 0.833333 0 
0.666667 0.833333 0 0.833333 0.833333 0 1 0.833333 0 
0.166667 1 0 0.333333 1 0 0.5 1 0 
0.666667 1 0 0.833333 1 0 0 0 0.166667 
0.166667 0 0.166667 0.333333 0 0.166667 0.5 0 0.166667 
0.666667 0 0.166667 0.833333 0 0.166667 1 0 0.166667 
0 0.166667 0.166667 0.166667 0.166667 0.166667 0.333333 0.166667 0.166667 
0.5 0.166667 0.166667 0.666667 0.166667 0.166667 0.833333 0.166667 0.166667 
1 0.166667 0.166667 0 0.333333 0.166667 0.166667 0.333333 0.166667 
0.333333 0.333333 0.166667 0.5 0.333333 0.166667 0.666667 0.333333 0.166667 
0.833333 0.333333 0.166667 1 0.333333 0.166667 0 0.5 0.166667 
0.166667 0.5 0.166667 0.333333 0.5 0.166667 0.5 0.5 0.166667 
0.666667 0.5 0.166667 0.833333 0.5 0.166667 1 0.5 0.166667 
0 0.666667 0.166667 0.166667 0.666667 0.166667 0.333333 0.666667 0.166667 
0.5 0.666667 0.166667 0.666667 0.666667 0.166667 0.833333 0.666667 0.166667 
1 0.666667 0.166667 0 0.833333 0.166667 0.166667 0.833333 0.166667 
0.333333 0.833333 0.166667 0.5 0.833333 0.166667 0.666667 0.833333 0.166667 
0.833333 0.833333 0.166667 1 0.833333 0.166667 0 1 0.166667 
0.166667 1 0.166667 0.333333 1 0.166667 0.5 1 0.166667 
0.666667 1 0.166667 0.833333 1 0.166667 1 1 0.166667 
0 0 0.333333 0.166667 0 0.333333 0.333333 0 0.333333 
0.5 0 0.333333 0.666667 0 0.333333 0.833333 0 0.333333 
1 0 0.333333 0 0.166667 0.333333 0.166667 0.166667 0.333333 
0.333333 0.166667 0.333333 0.5 0.166667 0.333333 0.666667 0.166667 0.333333 
0.833333 0.166667 0.333333 1 0.166667 0.333333 0 0.333333 0.333333 
0.166667 0.333333 0.333333 0.333333 0.333333 0.333333 0.5 0.333333 0.333333 
0.666667 0.333333 0.333333 0.833333 0.333333 0.333333 1 0.333333 0.333333 
0 0.5 0.333333 0.166667 0.5 0.333333 0.333333 0.5 0.333333 
0.5 0.5 0.333333 0.666667 0.5 0.333333 0.833333 0.5 0.333333 
1 0.5 0.333333 0 0.666667 0.333333 0.166667 0.666667 0.333333 
0.333333 0.666667 0.333333 0.5 0.666667 0.333333 0.666667 0.666667 0.333333 
0.833333 0.666667 0.333333 1 0.666667 0.333333 0 0.833333 0.333333 
0.166667 0.833333 0.333333 0.333333 0.833333 0.333333 0.5 0.833333 0.333333 
0.666667 0.833333 0.333333 0.833333 0.833333 0.333333 1 0.833333 0.333333 
0 1 0.333333 0.166667 1 0.333333 0.333333 1 0.333333 
0.5 1 0.333333 0.666667 1 0.333333 0.833333 1 0.333333 
1 1 0.333333 0 0 0.5 0.166667 0 0.5 
0.333333 0 0.5 0.5 0 0.5 0.666667 0 0.5 
0.833333 0 0.5 1 0 0.5 0 0.166667 0.5 
0.166667 0.166667 0.5 0.333333 0.166667 0.5 0.5 0.166667 0.5 
0.666667 0.166667 0.5 0.833333 0.166667 0.5 1 0.166667 0.5 
0 0.333333 0.5 0.166667 0.333333 0.5 0.333333 0.333333 0.5 
0.5 0.333333 0.5 0.666667 0.333333 0.5 0.833333 0.333333 0.5 
1 0.333333 0.5 0 0.5 0.5 0.166667 0.5 0.5 
0.333333 0.5 0.5 0.5 0.5 0.5 0.666667 0.5 0.5 
0.833333 0.5 0.5 1 0.5 0.5 0 0.666667 0.5 
0.166667 0.666667 0.5 0.333333 0.666667 0.5 0.5 0.666667 0.5 
0.666667 0.666667 0.5 0.833333 0.666667 0.5 1 0.666667 0.5 
0 0.833333 0.5 0.166667 0.833333 0.5 0.333333 0.833333 0.5 
0.5 0.833333 0.5 0.666667 0.833333 0.5 0.833333 0.833333 0.5 
1 0.833333 0.5 0 1 0.5 0.166667 1 0.5 
0.333333 1 0.5 0.5 1 0.5 0.666667 1 0.5 
0.833333 1 0.5 1 1 0.5 0 0 0.666667 
0.166667 0 0.666667 0.333333 0 0.666667 0.5 0 0.666667 
0.666667 0 0.666667 0.833333 0 0.666667 1 0 0.666667 
0 0.166667 0.666667 0.166667 0.166667 0.666667 0.333333 0.166667 0.666667 
0.5 0.166667 0.666667 0.666667 0.166667 0.666667 0.833333 0.166667 0.666667 
1 0.166667 0.666667 0 0.333333 0.666667 0.166667 0.333333 0.666667 
0.333333 0.333333 0.666667 0.5 0.333333 0.666667 0.666667 0.333333 0.666667 
0.833333 0.333333 0.666667 1 0.333333 0.666667 0 0.5 0.666667 
0.166667 0.5 0.666667 0.333333 0.5 0.666667 0.5 0.5 0.666667 
0.666667 0.5 0.666667 0.833333 0.5 0.666667 1 0.5 0.666667 
0 0.666667 0.666667 0.166667 0.666667 0.666667 0.333333 0.666667 0.666667 
0.5 0.666667 0.666667 0.666667 0.666667 0.666667 0.833333 0.666667 0.666667 
1 0.666667 0.666667 0 0.833333 0.666667 0.166667 0.833333 0.666667 
0.333333 0.833333 0.666667 0.5 0.833333 0.666667 0.666667 0.833333 0.666667 
0.833333 0.833333 0.666667 1 0.833333 0.666667 0 1 0.666667 
0.166667 1 0.666667 0.333333 1 0.666667 0.5 1 0.666667 
0.666667 1 0.666667 0.833333 1 0.666667 1 1 0.666667 
0 0 0.833333 0.166667 0 0.833333 0.333333 0 0.833333 
0.5 0 0.833333 0.666667 0 0.833333 0.833333 0 0.833333 
1 0 0.833333 0 0.166667 0.833333 0.166667 0.166667 0.833333 
0.333333 0.166667 0.833333 0.5 0.166667 0.833333 0.666667 0.166667 0.833333 
0.833333 0.166667 0.833333 1 0.166667 0.833333 0 0.333333 0.833333 
0.166667 0.333333 0.833333 0.333333 0.333333 0.833333 0.5 0.333333 0.833333 
0.666667 0.333333 0.833333 0.833333 0.333333 0.833333 1 0.333333 0.833333 
0 0.5 0.833333 0.166667 0.5 0.833333 0.333333 0.5 0.833333 
0.5 0.5 0.833333 0.666667 0.5 0.833333 0.833333 0.5 0.833333 
1 0.5 0.833333 0 0.666667 0.833333 0.166667 0.666667 0.833333 
0.333333 0.666667 0.833333 0.5 0.666667 0.833333 0.666667 0.666667 0.833333 
0.833333 0.666667 0.833333 1 0.666667 0.833333 0 0.833333 0.833333 
0.166667 0.833333 0.833333 0.333333 0.833333 0.833333 0.5 0.833333 0.833333 
0.666667 0.833333 0.833333 0.833333 0.833333 0.833333 1 0.833333 0.833333 
0 1 0.833333 0.166667 1 0.833333 0.333333 1 0.833333 
0.5 1 0.833333 0.666667 1 0.833333 0.833333 1 0.833333 
1 1 0.833333 0.166667 0 1 0.333333 0 1 
0.5 0 1 0.666667 0 1 0.833333 0 1 
0 0.166667 1 0.166667 0.166667 1 0.333333 0.166667 1 
0.5 0.166667 1 0.666667 0.166667 1 0.833333 0.166667 1 
1 0.166667 1 0 0.333333 1 0.166667 0.333333 1 
0.333333 0.333333 1 0.5 0.333333 1 0.666667 0.333333 1 
0.833333 0.333333 1 1 0.333333 1 0 0.5 1 
0.166667 0.5 1 0.333333 0.5 1 0.5 0.5 1 
0.666667 0.5 1 0.833333 0.5 1 1 0.5 1 
0 0.666667 1 0.166667 0.666667 1 0.333333 0.666667 1 
0.5 0.666667 1 0.666667 0.666667 1 0.833333 0.666667 1 
1 0.666667 1 0 0.833333 1 0.166667 0.833333 1 
0.333333 0.833333 1 0.5 0.833333 1 0.666667 0.833333 1 
0.833333 0.833333 1 1 0.833333 1 0.166667 1 1 
0.333333 1 1 0.5 1 1 0.666667 1 1 
0.833333 1 1 
METADATA
INFORMATION 2
NAME L2_NORM_RANGE LOCATION vtkDataArray
DATA 2 0 1.73205 
NAME L2_NORM_FINITE_RANGE LOCATION vtkDataArray
DATA 2 0 1.73205 

CELLS 1 197
196 0 1 2 4 5 6 8 9 10 11 12 18 24 30 36 42 41 34 27 20 13 298 299 300 301 302 308 314 320 326 332 331 324 317 310 303 53 102 151 200 249 59 108 157 206 255 95 144 193 242 291 14 15 16 17 21 22 23 28 29 35 304 305 306 307 311 312 313 318 319 325 54 55 56 57 58 103 104 105 106 107 152 153 154 155 156 201 202 203 204 205 250 251 252 253 254 65 71 77 83 89 114 120 126 132 138 163 169 175 181 187 212 218 224 230 236 261 267 273 279 285 60 67 74 81 88 109 116 123 130 137 158 165 172 179 186 207 214 221 228 235 256 263 270 277 284 61 62 63 64 68 69 70 75 76 82 110 111 112 113 117 118 119 124 125 131 159 160 161 162 166 167 168 173 174 180 208 209 210 211 215 216 217 222 223 229 257 258 259 260 264 265 266 271 272 278 

CELL_TYPES 1
73

POINT_DATA 343
FIELD FieldData 2
DistanceToCenter 1 343 float
0.866025 0.866025 0.866025 0.866025 0.866025 0.866025 0.866025 0.866025 0.781736 
0.726483 0.707107 0.726483 0.781736 0.781736 0.687184 0.62361 0.600925 0.62361 
0.687184 0.781736 0.726483 0.62361 0.552771 0.527046 0.552771 0.62361 0.726483 
0.707107 0.600925 0.527046 0.5 0.527046 0.600925 0.707107 0.726483 0.62361 
0.552771 0.527046 0.552771 0.62361 0.726483 0.781736 0.687184 0.62361 0.600925 
0.62361 0.687184 0.781736 0.781736 0.726483 0.707107 0.726483 0.781736 0.781736 
0.687184 0.62361 0.600925 0.62361 0.687184 0.781736 0.687184 0.57735 0.5 
0.471405 0.5 0.57735 0.687184 0.62361 0.5 0.408248 0.372678 0.408248 
0.5 0.62361 0.600925 0.471405 0.372678 0.333333 0.372678 0.471404 0.600925 
0.62361 0.5 0.408248 0.372678 0.408248 0.5 0.62361 0.687184 0.57735 
0.5 0.471404 0.5 0.57735 0.687184 0.781736 0.687184 0.62361 0.600925 
0.62361 0.687184 0.781736 0.726483 0.62361 0.552771 0.527046 0.552771 0.62361 
0.726483 0.62361 0.5 0.408248 0.372678 0.408248 0.5 0.62361 0.552771 
0.408248 0.288675 0.235702 0.288675 0.408248 0.552771 0.527046 0.372678 0.235702 
0.166667 0.235702 0.372678 0.527046 0.552771 0.408248 0.288675 0.235702 0.288675 
0.408248 0.552771 0.62361 0.5 0.408248 0.372678 0.408248 0.5 0.62361 
0.726483 0.62361 0.552771 0.527046 0.552771 0.62361 0.726483 0.707107 0.600925 
0.527046 0.5 0.527046 0.600925 0.707107 0.600925 0.471405 0.372678 0.333333 
0.372678 0.471404 0.600925 0.527046 0.372678 0.235702 0.166667 0.235702 0.372678 
0.527046 0.5 0.333333 0.166667 0 0.166667 0.333333 0.5 0.527046 
0.372678 0.235702 0.166667 0.235702 0.372678 0.527046 0.600925 0.471404 0.372678 
0.333333 0.372678 0.471404 0.600925 0.707107 0.600925 0.527046 0.5 0.527046 
0.600925 0.707107 0.726483 0.62361 0.552771 0.527046 0.552771 0.62361 0.726483 
0.62361 0.5 0.408248 0.372678 0.408248 0.5 0.62361 0.552771 0.408248 
0.288675 0.235702 0.288675 0.408248 0.552771 0.527046 0.372678 0.235702 0.166667 
0.235702 0.372678 0.527046 0.552771 0.408248 0.288675 0.235702 0.288675 0.408248 
0.552771 0.62361 0.5 0.408248 0.372678 0.408248 0.5 0.62361 0.726483 
0.62361 0.552771 0.527046 0.552771 0.62361 0.726483 0.781736 0.687184 0.62361 
0.600925 0.62361 0.687184 0.781736 0.687184 0.57735 0.5 0.471404 0.5 
0.57735 0.687184 0.62361 0.5 0.408248 0.372678 0.408248 0.5 0.62361 
0.600925 0.471404 0.372678 0.333333 0.372678 0.471404 0.600925 0.62361 0.5 
0.408248 0.372678 0.408248 0.5 0.62361 0.687184 0.57735 0.5 0.471404 
0.5 0.57735 0.687184 0.781736 0.687184 0.62361 0.600925 0.62361 0.687184 
0.781736 0.781736 0.726483 0.707107 0.726483 0.781736 0.781736 0.687184 0.62361 
0.600925 0.62361 0.687184 0.781736 0.726483 0.62361 0.552771 0.527046 0.552771 
0.62361 0.726483 0.707107 0.600925 0.527046 0.5 0.527046 0.600925 0.707107 
0.726483 0.62361 0.552771 0.527046 0.552771 0.62361 0.726483 0.781736 0.687184 
0.62361 0.600925 0.62361 0.687184 0.781736 0.781736 0.726483 0.707107 0.726483 
0.781736 
METADATA
INFORMATION 0

Polynomial 1 343 float
1 2 2 3 2 3 3 4 1 
1 1 1 1 1 1 1 1 1 
1 2 1 1 1 1 1 1 2 
1 1 1 1 1 1 2 1 1 
1 1 1 1 2 1 1 1 1 
1 1 2 2 2 2 2 2 1 
1 1 1 1 1 2 1 1 1 
1 1 1 2 1 1 1 1 1 
1 2 1 1 1 1 1 1 2 
1 1 1 1 1 1 2 1 1 
1 1 1 1 2 2 2 2 2 
2 2 3 1 1 1 1 1 1 
2 1 1 1 1 1 1 2 1 
1 1 1 1 1 2 1 1 1 
1 1 1 2 1 1 1 1 1 
1 2 1 1 1 1 1 1 2 
2 2 2 2 2 2 3 1 1 
1 1 1 1 2 1 1 1 1 
1 1 2 1 1 1 1 1 1 
2 1 1 1 1 1 1 2 1 
1 1 1 1 1 2 1 1 1 
1 1 1 2 2 2 2 2 2 
2 3 1 1 1 1 1 1 2 
1 1 1 1 1 1 2 1 1 
1 1 1 1 2 1 1 1 1 
1 1 2 1 1 1 1 1 1 
2 1 1 1 1 1 1 2 2 
2 2 2 2 2 3 1 1 1 
1 1 1 2 1 1 1 1 1 
1 2 1 1 1 1 1 1 2 
1 1 1 1 1 1 2 1 1 
1 1 1 1 2 1 1 1 1 
1 1 2 2 2 2 2 2 2 
3 2 2 2 2 2 2 2 2 
2 2 2 3 2 2 2 2 2 
2 3 2 2 2 2 2 2 3 
2 2 2 2 2 2 3 2 2 
2 2 2 2 3 3 3 3 3 
3 
METADATA
INFORMATION 0

