# vtk DataFile Version 4.2
vtk output
ASCII
DATASET UNSTRUCTURED_GRID
POINTS 64 float
0 0 0 1 0 0 0 1 0 
1 1 0 0 0 1 1 0 1 
0 1 1 1 1 1 0.333333 0 0 
0.666667 0 0 0 0.333333 0 0.333333 0.333333 0 
0.666667 0.333333 0 1 0.333333 0 0 0.666667 0 
0.333333 0.666667 0 0.666667 0.666667 0 1 0.666667 0 
0.333333 1 0 0.666667 1 0 0 0 0.333333 
0.333333 0 0.333333 0.666667 0 0.333333 1 0 0.333333 
0 0.333333 0.333333 0.333333 0.333333 0.333333 0.666667 0.333333 0.333333 
1 0.333333 0.333333 0 0.666667 0.333333 0.333333 0.666667 0.333333 
0.666667 0.666667 0.333333 1 0.666667 0.333333 0 1 0.333333 
0.333333 1 0.333333 0.666667 1 0.333333 1 1 0.333333 
0 0 0.666667 0.333333 0 0.666667 0.666667 0 0.666667 
1 0 0.666667 0 0.333333 0.666667 0.333333 0.333333 0.666667 
0.666667 0.333333 0.666667 1 0.333333 0.666667 0 0.666667 0.666667 
0.333333 0.666667 0.666667 0.666667 0.666667 0.666667 1 0.666667 0.666667 
0 1 0.666667 0.333333 1 0.666667 0.666667 1 0.666667 
1 1 0.666667 0.333333 0 1 0.666667 0 1 
0 0.333333 1 0.333333 0.333333 1 0.666667 0.333333 1 
1 0.333333 1 0 0.666667 1 0.333333 0.666667 1 
0.666667 0.666667 1 1 0.666667 1 0.333333 1 1 
0.666667 1 1 
METADATA
INFORMATION 2
NAME L2_NORM_RANGE LOCATION vtkDataArray
DATA 2 0 1.73205 
NAME L2_NORM_FINITE_RANGE LOCATION vtkDataArray
DATA 2 0 1.73205 

CELLS 1 41
40 0 1 2 4 5 6 8 9 12 15 14 10 52 53 56 59 58 54 20 36 23 39 32 48 11 55 21 22 37 38 26 29 42 45 24 28 40 44 25 41 

CELL_TYPES 1
73

POINT_DATA 64
FIELD FieldData 2
DistanceToCenter 1 64 float
0.866025 0.866025 0.866025 0.866025 0.866025 0.866025 0.866025 0.866025 0.726483 
0.726483 0.726483 0.552771 0.552771 0.726483 0.726483 0.552771 0.552771 0.726483 
0.726483 0.726483 0.726483 0.552771 0.552771 0.726483 0.552771 0.288675 0.288675 
0.552771 0.552771 0.288675 0.288675 0.552771 0.726483 0.552771 0.552771 0.726483 
0.726483 0.552771 0.552771 0.726483 0.552771 0.288675 0.288675 0.552771 0.552771 
0.288675 0.288675 0.552771 0.726483 0.552771 0.552771 0.726483 0.726483 0.726483 
0.726483 0.552771 0.552771 0.726483 0.726483 0.552771 0.552771 0.726483 0.726483 
0.726483 
METADATA
INFORMATION 0

Polynomial 1 64 float
1 6 6 21 6 21 21 56 1 
1 1 1 1 6 1 1 1 6 
6 6 1 1 1 6 1 1 1 
6 1 1 1 6 6 6 6 21 
1 1 1 6 1 1 1 6 1 
1 1 6 6 6 6 21 6 6 
6 6 6 21 6 6 6 21 21 
21 
METADATA
INFORMATION 0

